 Entering Gaussian System, Link 0=g16
 Input=c1cneng.gjf
 Output=c1cneng.log
 Initial command:
 /hpc/softwares/Gaussian/g16/l1.exe "/hpc/home/hpcmgac13/pbs.14186.admin1.x8z/Gau-4176818.inp" -scrdir="/hpc/home/hpcmgac13/pbs.14186.admin1.x8z/"
 Default linda workers: n2
 Default is to use   8 SMP processors on each worker.
 Entering Link 1 = /hpc/softwares/Gaussian/g16/l1.exe PID=   4176819.
  
 Copyright (c) 1988-2021, Gaussian, Inc.  All Rights Reserved.
  
 This is part of the Gaussian(R) 16 program.  It is based on
 the Gaussian(R) 09 system (copyright 2009, Gaussian, Inc.),
 the Gaussian(R) 03 system (copyright 2003, Gaussian, Inc.),
 the Gaussian(R) 98 system (copyright 1998, Gaussian, Inc.),
 the Gaussian(R) 94 system (copyright 1995, Gaussian, Inc.),
 the Gaussian 92(TM) system (copyright 1992, Gaussian, Inc.),
 the Gaussian 90(TM) system (copyright 1990, Gaussian, Inc.),
 the Gaussian 88(TM) system (copyright 1988, Gaussian, Inc.),
 the Gaussian 86(TM) system (copyright 1986, Carnegie Mellon
 University), and the Gaussian 82(TM) system (copyright 1983,
 Carnegie Mellon University). Gaussian is a federally registered
 trademark of Gaussian, Inc.
  
 This software contains proprietary and confidential information,
 including trade secrets, belonging to Gaussian, Inc.
  
 This software is provided under written license and may be
 used, copied, transmitted, or stored only in accord with that
 written license.
  
 The following legend is applicable only to US Government
 contracts under FAR:
  
                    RESTRICTED RIGHTS LEGEND
  
 Use, reproduction and disclosure by the US Government is
 subject to restrictions as set forth in subparagraphs (a)
 and (c) of the Commercial Computer Software - Restricted
 Rights clause in FAR 52.227-19.
  
 Gaussian, Inc.
 340 Quinnipiac St., Bldg. 40, Wallingford CT 06492
  
  
 ---------------------------------------------------------------
 Warning -- This program may not be used in any manner that
 competes with the business of Gaussian, Inc. or will provide
 assistance to any competitor of Gaussian, Inc.  The licensee
 of this program is prohibited from giving any competitor of
 Gaussian, Inc. access to this program.  By using this program,
 the user acknowledges that Gaussian, Inc. is engaged in the
 business of creating and licensing software in the field of
 computational chemistry and represents and warrants to the
 licensee that it is not a competitor of Gaussian, Inc. and that
 it will not use this program in any manner prohibited above.
 ---------------------------------------------------------------
  

 Cite this work as:
 Gaussian 16, Revision C.02,
 M. J. Frisch, G. W. Trucks, H. B. Schlegel, G. E. Scuseria, 
 M. A. Robb, J. R. Cheeseman, G. Scalmani, V. Barone, 
 G. A. Petersson, H. Nakatsuji, X. Li, M. Caricato, A. V. Marenich, 
 J. Bloino, B. G. Janesko, R. Gomperts, B. Mennucci, H. P. Hratchian, 
 J. V. Ortiz, A. F. Izmaylov, J. L. Sonnenberg, D. Williams-Young, 
 F. Ding, F. Lipparini, F. Egidi, J. Goings, B. Peng, A. Petrone, 
 T. Henderson, D. Ranasinghe, V. G. Zakrzewski, J. Gao, N. Rega, 
 G. Zheng, W. Liang, M. Hada, M. Ehara, K. Toyota, R. Fukuda, 
 J. Hasegawa, M. Ishida, T. Nakajima, Y. Honda, O. Kitao, H. Nakai, 
 T. Vreven, K. Throssell, J. A. Montgomery, Jr., J. E. Peralta, 
 F. Ogliaro, M. J. Bearpark, J. J. Heyd, E. N. Brothers, K. N. Kudin, 
 V. N. Staroverov, T. A. Keith, R. Kobayashi, J. Normand, 
 K. Raghavachari, A. P. Rendell, J. C. Burant, S. S. Iyengar, 
 J. Tomasi, M. Cossi, J. M. Millam, M. Klene, C. Adamo, R. Cammi, 
 J. W. Ochterski, R. L. Martin, K. Morokuma, O. Farkas, 
 J. B. Foresman, and D. J. Fox, Gaussian, Inc., Wallingford CT, 2019.
 
 ******************************************
 Gaussian 16:  ES64L-G16RevC.02  7-Dec-2021
                20-Sep-2025 
 ******************************************
 %chk=C1cn opt.chk
 SetLPE:    new flags="-opt 'Tsnet.Node.lindarsharg: ssh'  -nodelist 'n2.head.cm.mguif.local' -env GAUSS_MDEF=2415919104 -env GAUSS_EXEDIR="/hpc/softwares/Gaussian/g16/bsd:/hpc/softwares/Gaussian/g16""
 Will use up to    1 processors via Linda.
 ------------------------------------------------------------
 # td=(50-50,nstates=6) b3lyp/6-311++g(d,p) geom=connectivity
 ------------------------------------------------------------
 1/38=1,57=2,172=1/1;
 2/12=2,17=6,18=5,40=1/2;
 3/5=4,6=6,7=1111,11=9,25=1,30=1,74=-5/1,2,3,8;
 4//1;
 5/5=2,38=5/2;
 8/6=1,10=2,108=6/1;
 9/41=6,42=1,48=2,70=2/14;
 6/7=2,8=2,9=2,10=2/1;
 99/5=1,9=1/99;
 -------------------
 Title Card Required
 -------------------
 Symbolic Z-matrix:
 Charge =  0 Multiplicity = 1
 C                    -1.28265   0.12334   0.00001 
 C                    -2.27759   1.15487  -0.00004 
 H                    -2.10309   2.21765  -0.00004 
 C                    -3.47562   0.53057  -0.0006 
 H                    -4.47923   0.92698  -0.00085 
 C                    -2.03649  -1.17072   0.00006 
 O                    -1.66013  -2.30338   0.00052 
 O                    -3.39355  -0.83737  -0.00024 
 C                     0.08039   0.1944    0.0001 
 C                     1.06646  -0.84593   0.00036 
 H                     0.88935  -1.90852   0.00068 
 C                     2.27358  -0.22942  -0.00011 
 C                     0.83412   1.48103   0.00018 
 O                     0.46262   2.61597   0.0002 
 O                     2.19278   1.14814   0.00027 
 C                     3.57081  -0.79293  -0.00033 
 N                     4.62301  -1.2706   -0.00051 
 
                          Input orientation:                          
 ---------------------------------------------------------------------
 Center     Atomic      Atomic             Coordinates (Angstroms)
 Number     Number       Type             X           Y           Z
 ---------------------------------------------------------------------
      1          6           0       -1.282647    0.123337    0.000012
      2          6           0       -2.277586    1.154873   -0.000035
      3          1           0       -2.103086    2.217651   -0.000041
      4          6           0       -3.475622    0.530569   -0.000600
      5          1           0       -4.479228    0.926979   -0.000848
      6          6           0       -2.036488   -1.170717    0.000064
      7          8           0       -1.660126   -2.303383    0.000515
      8          8           0       -3.393545   -0.837369   -0.000241
      9          6           0        0.080385    0.194395    0.000104
     10          6           0        1.066463   -0.845934    0.000358
     11          1           0        0.889347   -1.908522    0.000684
     12          6           0        2.273578   -0.229418   -0.000109
     13          6           0        0.834115    1.481027    0.000175
     14          8           0        0.462621    2.615967    0.000195
     15          8           0        2.192777    1.148144    0.000271
     16          6           0        3.570811   -0.792927   -0.000328
     17          7           0        4.623011   -1.270601   -0.000509
 ---------------------------------------------------------------------
                    Distance matrix (angstroms):
                    1          2          3          4          5
     1  C    0.000000
     2  C    1.433168   0.000000
     3  H    2.249282   1.077009   0.000000
     4  C    2.230466   1.350943   2.174880   0.000000
     5  H    3.296054   2.213405   2.704050   1.079058   0.000000
     6  C    1.497615   2.338054   3.389022   2.228336   3.219830
     7  O    2.455903   3.512946   4.542682   3.365607   4.287491
     8  O    2.319234   2.283504   3.316388   1.370398   2.071625
     9  C    1.364883   2.546084   2.976762   3.571862   4.618090
    10  C    2.541221   3.896908   4.408128   4.746082   5.822191
    11  H    2.974224   4.406116   5.097054   5.000212   6.071381
    12  C    3.573678   4.757032   5.014313   5.799214   6.851105
    13  C    2.514757   3.128747   3.028162   4.413299   5.342152
    14  O    3.042888   3.105403   2.596441   4.456304   5.222504
    15  O    3.623369   4.470368   4.426995   5.701942   6.675670
    16  C    4.939190   6.164225   6.423137   7.169649   8.231719
    17  N    6.067937   7.314449   7.576825   8.296509   9.363766
                    6          7          8          9         10
     6  C    0.000000
     7  O    1.193558   0.000000
     8  O    1.397399   2.270229   0.000000
     9  C    2.518865   3.044384   3.623910   0.000000
    10  C    3.119902   3.091674   4.460016   1.433400   0.000000
    11  H    3.017427   2.579870   4.414808   2.253149   1.077248
    12  C    4.411656   4.446949   5.699639   2.233767   1.355440
    13  C    3.907954   4.532438   4.821625   1.491151   2.338532
    14  O    4.537017   5.357804   5.176441   2.451554   3.514169
    15  O    4.823256   5.172804   5.928681   2.317722   2.290181
    16  C    5.620011   5.444647   6.964498   3.627379   2.504909
    17  N    6.660248   6.367452   8.028254   4.773014   3.581812
                   11         12         13         14         15
    11  H    0.000000
    12  C    2.176117   0.000000
    13  C    3.389999   2.235548   0.000000
    14  O    4.544568   3.372800   1.194193   0.000000
    15  O    3.322971   1.379930   1.398847   2.268908   0.000000
    16  C    2.904273   1.414339   3.558142   4.613177   2.380490
    17  N    3.787769   2.569805   4.682648   5.693352   3.428756
                   16         17
    16  C    0.000000
    17  N    1.155551   0.000000
 Stoichiometry    C9H3NO4
 Framework group  C1[X(C9H3NO4)]
 Deg. of freedom    45
 Full point group                 C1      NOp   1
 Largest Abelian subgroup         C1      NOp   1
 Largest concise Abelian subgroup C1      NOp   1
                         Standard orientation:                         
 ---------------------------------------------------------------------
 Center     Atomic      Atomic             Coordinates (Angstroms)
 Number     Number       Type             X           Y           Z
 ---------------------------------------------------------------------
      1          6           0        1.282647    0.123337   -0.000012
      2          6           0        2.277586    1.154873    0.000035
      3          1           0        2.103086    2.217651    0.000041
      4          6           0        3.475622    0.530569    0.000600
      5          1           0        4.479228    0.926979    0.000848
      6          6           0        2.036488   -1.170717   -0.000064
      7          8           0        1.660126   -2.303383   -0.000515
      8          8           0        3.393545   -0.837369    0.000241
      9          6           0       -0.080385    0.194395   -0.000104
     10          6           0       -1.066463   -0.845934   -0.000358
     11          1           0       -0.889347   -1.908522   -0.000684
     12          6           0       -2.273578   -0.229418    0.000109
     13          6           0       -0.834115    1.481027   -0.000175
     14          8           0       -0.462621    2.615967   -0.000195
     15          8           0       -2.192777    1.148144   -0.000271
     16          6           0       -3.570811   -0.792927    0.000328
     17          7           0       -4.623011   -1.270601    0.000509
 ---------------------------------------------------------------------
 Rotational constants (GHZ):           1.4946302           0.4405483           0.3402564
 Standard basis: 6-311++G(d,p) (5D, 7F)
 There are   343 symmetry adapted cartesian basis functions of A   symmetry.
 There are   329 symmetry adapted basis functions of A   symmetry.
   329 basis functions,   531 primitive gaussians,   343 cartesian basis functions
    48 alpha electrons       48 beta electrons
       nuclear repulsion energy       787.9428264782 Hartrees.
 NAtoms=   17 NActive=   17 NUniq=   17 SFac= 1.00D+00 NAtFMM=   60 NAOKFM=F Big=F
 Integral buffers will be    131072 words long.
 Regular integral format.
 Two-electron integral symmetry is turned on.
 One-electron integrals computed using PRISM.
 NBasis=   329 RedAO= T EigKep=  2.34D-06  NBF=   329
 NBsUse=   327 1.00D-06 EigRej=  8.10D-07 NBFU=   327
 ExpMin= 3.60D-02 ExpMax= 8.59D+03 ExpMxC= 1.30D+03 IAcc=3 IRadAn=         5 AccDes= 0.00D+00
 Harris functional with IExCor=  402 and IRadAn=       5 diagonalized for initial guess.
 HarFok:  IExCor=  402 AccDes= 0.00D+00 IRadAn=         5 IDoV= 1 UseB2=F ITyADJ=14
 ICtDFT=  3500011 ScaDFX=  1.000000  1.000000  1.000000  1.000000
 FoFCou: FMM=F IPFlag=           0 FMFlag=      100000 FMFlg1=           0
         NFxFlg=           0 DoJE=T BraDBF=F KetDBF=T FulRan=T
         wScrn=  0.000000 ICntrl=       500 IOpCl=  0 I1Cent=   200000004 NGrid=           0
         NMat0=    1 NMatS0=      1 NMatT0=    0 NMatD0=    1 NMtDS0=    0 NMtDT0=    0
 Petite list used in FoFCou.
 Requested convergence on RMS density matrix=1.00D-08 within 128 cycles.
 Requested convergence on MAX density matrix=1.00D-06.
 Requested convergence on             energy=1.00D-06.
 No special actions if energy rises.
 SCF Done:  E(RB3LYP) =  -700.547502536     A.U. after   15 cycles
            NFock= 15  Conv=0.55D-08     -V/T= 2.0036
 DoSCS=F DFT=T ScalE2(SS,OS)=  1.000000  1.000000
 ExpMin= 3.60D-02 ExpMax= 8.59D+03 ExpMxC= 1.30D+03 IAcc=3 IRadAn=         5 AccDes= 0.00D+00
 HarFok:  IExCor=  205 AccDes= 0.00D+00 IRadAn=         5 IDoV=-2 UseB2=F ITyADJ=14
 ICtDFT= 12500011 ScaDFX=  1.000000  1.000000  1.000000  1.000000
 Range of M.O.s used for correlation:    15   327
 NBasis=   329 NAE=    48 NBE=    48 NFC=    14 NFV=     0
 NROrb=    313 NOA=    34 NOB=    34 NVA=   279 NVB=   279

 **** Warning!!: The largest alpha MO coefficient is  0.13483955D+03

 Orbital symmetries:
       Occupied  (A) (A) (A) (A) (A) (A) (A) (A) (A) (A) (A) (A)
                 (A) (A) (A) (A) (A) (A) (A) (A) (A) (A) (A) (A)
                 (A) (A) (A) (A) (A) (A) (A) (A) (A) (A) (A) (A)
                 (A) (A) (A) (A) (A) (A) (A) (A) (A) (A) (A) (A)
       Virtual   (A) (A) (A) (A) (A) (A) (A) (A) (A) (A) (A) (A)
                 (A) (A) (A) (A) (A) (A) (A) (A) (A) (A) (A) (A)
                 (A) (A) (A) (A) (A) (A) (A) (A) (A) (A) (A) (A)
                 (A) (A) (A) (A) (A) (A) (A) (A) (A) (A) (A) (A)
                 (A) (A) (A) (A) (A) (A) (A) (A) (A) (A) (A) (A)
                 (A) (A) (A) (A) (A) (A) (A) (A) (A) (A) (A) (A)
                 (A) (A) (A) (A) (A) (A) (A) (A) (A) (A) (A) (A)
                 (A) (A) (A) (A) (A) (A) (A) (A) (A) (A) (A) (A)
                 (A) (A) (A) (A) (A) (A) (A) (A) (A) (A) (A) (A)
                 (A) (A) (A) (A) (A) (A) (A) (A) (A) (A) (A) (A)
                 (A) (A) (A) (A) (A) (A) (A) (A) (A) (A) (A) (A)
                 (A) (A) (A) (A) (A) (A) (A) (A) (A) (A) (A) (A)
                 (A) (A) (A) (A) (A) (A) (A) (A) (A) (A) (A) (A)
                 (A) (A) (A) (A) (A) (A) (A) (A) (A) (A) (A) (A)
                 (A) (A) (A) (A) (A) (A) (A) (A) (A) (A) (A) (A)
                 (A) (A) (A) (A) (A) (A) (A) (A) (A) (A) (A) (A)
                 (A) (A) (A) (A) (A) (A) (A) (A) (A) (A) (A) (A)
                 (A) (A) (A) (A) (A) (A) (A) (A) (A) (A) (A) (A)
                 (A) (A) (A) (A) (A) (A) (A) (A) (A) (A) (A) (A)
                 (A) (A) (A) (A) (A) (A) (A) (A) (A) (A) (A) (A)
                 (A) (A) (A) (A) (A) (A) (A) (A) (A) (A) (A) (A)
                 (A) (A) (A) (A) (A) (A) (A) (A) (A) (A) (A) (A)
                 (A) (A) (A) (A) (A) (A) (A) (A) (A) (A) (A) (A)
                 (A) (A) (A)
    48 initial guesses have been made.
 Convergence on wavefunction:    0.001000000000000
 Iteration     1 Dimension    48 NMult     0 NNew     48
 CISAX will form    48 AO SS matrices at one time.
 New state      1 was old state      2
 New state      2 was old state      4
 New state      3 was old state      6
 New state      4 was old state      1
 New state      6 was old state      8
 New state      7 was old state      3
 New state      8 was old state      7
 New state      9 was old state     10
 New state     10 was old state     16
 New state     11 was old state     12
 New state     12 was old state     20
 New state     13 was old state     14
 New state     14 was old state      9
 New state     15 was old state     13
 New state     16 was old state     26
 New state     17 was old state     18
 New state     18 was old state     17
 New state     19 was old state     28
 New state     20 was old state     22
 New state     21 was old state     15
 New state     22 was old state     32
 New state     23 was old state     21
 Vector  11 SDiff=2.25D+00 TDiff=1.10D+01 assumed to be singlet.
 Vector  12 SDiff=9.61D-03 TDiff=8.03D+00 assumed to be singlet.
 Vector  23 SDiff=2.28D+00 TDiff=9.44D+00 assumed to be singlet.
 Vector  24 SDiff=9.72D-03 TDiff=7.81D+00 assumed to be singlet.
 Iteration     2 Dimension    72 NMult    48 NNew     24
 New state      2 was old state      4
 New state      3 was old state      2
 New state      4 was old state      3
 New state     11 was old state     14
 New state     12 was old state     15
 Iteration     3 Dimension    96 NMult    72 NNew     24
 Iteration     4 Dimension   120 NMult    96 NNew     24
 Iteration     5 Dimension   138 NMult   120 NNew     18
 Iteration     6 Dimension   146 NMult   138 NNew      8
 Iteration     7 Dimension   148 NMult   146 NNew      2
 ***********************************************************************
 Excited states from <AA,BB:AA,BB> singles matrix:
 ***********************************************************************
 
 Ground to excited state transition densities written to RWF  633
 Ground to excited state transition electric dipole moments (Au):
       state          X           Y           Z        Dip. S.      Osc.
         1         0.0000      0.0000     -0.0000      0.0000      0.0000
         2         2.4156     -0.3797      0.0000      5.9795      0.4147
         3         0.0000     -0.0000      0.0000      0.0000      0.0000
         4        -0.0000      0.0000      0.0000      0.0000      0.0000
         5         0.0014     -0.0002      0.0085      0.0001      0.0000
         6        -0.0000      0.0000      0.0000      0.0000      0.0000
         7         0.1377     -0.0317     -0.0001      0.0200      0.0017
         8        -0.0003      0.0000      0.0236      0.0006      0.0001
         9         0.0000     -0.0000      0.0000      0.0000      0.0000
        10         0.0000      0.0000      0.0000      0.0000      0.0000
        11        -0.7468     -0.0848      0.0002      0.5649      0.0681
        12        -0.0001      0.0000      0.0209      0.0004      0.0001
 Ground to excited state transition velocity dipole moments (Au):
       state          X           Y           Z        Dip. S.      Osc.
         1         0.0000     -0.0000      0.0000      0.0000      0.0000
         2        -0.2525      0.0427     -0.0000      0.0656      0.4202
         3        -0.0000      0.0000     -0.0000      0.0000      0.0000
         4         0.0000      0.0000     -0.0000      0.0000      0.0000
         5        -0.0002      0.0000     -0.0008      0.0000      0.0000
         6         0.0000     -0.0000      0.0000      0.0000      0.0000
         7        -0.0186      0.0035      0.0000      0.0004      0.0018
         8         0.0000     -0.0000     -0.0036      0.0000      0.0001
         9         0.0000     -0.0000     -0.0000      0.0000      0.0000
        10        -0.0000     -0.0000     -0.0000      0.0000      0.0000
        11         0.1342      0.0114     -0.0000      0.0181      0.0668
        12         0.0000     -0.0000     -0.0036      0.0000      0.0000
 Ground to excited state transition magnetic dipole moments (Au):
       state          X           Y           Z
         1        -0.0000      0.0000      0.0000
         2        -0.0001      0.0004      0.2212
         3        -0.0000      0.0000     -0.0000
         4        -0.0000     -0.0000     -0.0000
         5        -0.1466     -0.4895      0.0006
         6        -0.0000     -0.0000      0.0000
         7        -0.0000     -0.0002     -0.8113
         8         0.0188      0.0245      0.0001
         9         0.0000     -0.0000     -0.0000
        10        -0.0000      0.0000     -0.0000
        11         0.0003      0.0000      0.5473
        12         0.2856      0.1342     -0.0002
 Ground to excited state transition velocity quadrupole moments (Au):
       state          XX          YY          ZZ          XY          XZ          YZ
         1         0.0000      0.0000     -0.0000      0.0000     -0.0000     -0.0000
         2        -0.0614      0.0326     -0.0072      0.1372     -0.0002     -0.0001
         3        -0.0000     -0.0000     -0.0000     -0.0000     -0.0000     -0.0000
         4         0.0000     -0.0000     -0.0000     -0.0000      0.0000     -0.0000
         5        -0.0003     -0.0000     -0.0000      0.0001     -0.0003     -0.0096
         6        -0.0000     -0.0000      0.0000     -0.0000      0.0000      0.0000
         7         0.5141      0.1073     -0.0221      0.0931      0.0000     -0.0000
         8        -0.0003     -0.0000     -0.0000     -0.0001     -0.0162     -0.0026
         9         0.0000      0.0000     -0.0000     -0.0000      0.0000     -0.0000
        10        -0.0000     -0.0000      0.0000     -0.0000     -0.0000     -0.0000
        11        -0.7884      0.0170      0.0126     -0.1022      0.0001      0.0000
        12         0.0003      0.0000      0.0000     -0.0001      0.0071      0.0092
 <0|del|b> * <b|rxdel|0> + <0|del|b> * <b|delr+rdel|0>
 Rotatory Strengths (R) in cgs (10**-40 erg-esu-cm/Gauss)
       state          XX          YY          ZZ    R(velocity)    E-M Angle
         1         0.0000     -0.0000     -0.0000     -0.0000       90.00
         2         0.0689      0.2105      0.0530      0.1108       90.00
         3         0.0000     -0.0000     -0.0000      0.0000       90.00
         4         0.0000      0.0000     -0.0000      0.0000       90.00
         5        -0.0420      0.0799      0.0306      0.0228       90.00
         6         0.0000      0.0000      0.0000      0.0000       90.00
         7        -0.0197     -0.0209     -0.0020     -0.0142       90.00
         8        -0.0015     -0.0002      0.0021      0.0001       90.00
         9         0.0000      0.0000      0.0000      0.0000       90.00
        10         0.0000      0.0000     -0.0000      0.0000       90.00
        11        -0.0260      0.0570      0.0751      0.0354       90.00
        12         0.0001      0.0071      0.0040      0.0037       90.00
 1/2[<0|r|b>*<b|rxdel|0> + (<0|rxdel|b>*<b|r|0>)*]
 Rotatory Strengths (R) in cgs (10**-40 erg-esu-cm/Gauss)
       state          XX          YY          ZZ     R(length)
         1         0.0000     -0.0000      0.0000      0.0000
         2         0.2323      0.1006     -0.0056      0.1091
         3         0.0000      0.0000      0.0000      0.0000
         4        -0.0000      0.0000      0.0000     -0.0000
         5         0.1485     -0.0677     -0.0035      0.0258
         6        -0.0000      0.0000     -0.0000     -0.0000
         7         0.0013     -0.0051     -0.0539     -0.0193
         8         0.0036     -0.0005     -0.0023      0.0003
         9        -0.0000     -0.0000      0.0000      0.0000
        10         0.0000     -0.0000      0.0000      0.0000
        11         0.1641      0.0005     -0.0684      0.0321
        12         0.0155     -0.0019      0.0029      0.0055
  1/2[<0|del|b>*<b|r|0> + (<0|r|b>*<b|del|0>)*] (Au)
       state          X           Y           Z        Dip. S.   Osc.(frdel)
         1         0.0000     -0.0000     -0.0000     -0.0000     -0.0000
         2        -0.6098     -0.0162     -0.0000      0.6261      0.4174
         3        -0.0000     -0.0000     -0.0000      0.0000      0.0000
         4        -0.0000      0.0000     -0.0000      0.0000      0.0000
         5        -0.0000     -0.0000     -0.0000      0.0000      0.0000
         6        -0.0000     -0.0000      0.0000      0.0000      0.0000
         7        -0.0026     -0.0001     -0.0000      0.0027      0.0018
         8        -0.0000     -0.0000     -0.0001      0.0001      0.0001
         9         0.0000      0.0000     -0.0000     -0.0000     -0.0000
        10        -0.0000     -0.0000     -0.0000      0.0000      0.0000
        11        -0.1002     -0.0010     -0.0000      0.1012      0.0674
        12        -0.0000     -0.0000     -0.0001      0.0001      0.0000

 Excitation energies and oscillator strengths:
 
 Excited State   1:      Triplet-A      0.9813 eV 1263.47 nm  f=0.0000  <S**2>=2.000
      48 -> 49         0.73564
      48 <- 49         0.23230
 This state for optimization and/or second-order correction.
 Total Energy, E(TD-HF/TD-DFT) =  -700.511440559    
 Copying the excited state density for this state as the 1-particle RhoCI density.
 
 Excited State   2:      Singlet-A      2.8305 eV  438.03 nm  f=0.4147  <S**2>=0.000
      48 -> 49         0.70925
      48 <- 49        -0.14032
 
 Excited State   3:      Triplet-A      2.8892 eV  429.13 nm  f=0.0000  <S**2>=2.000
      47 -> 49         0.66635
      48 -> 50        -0.19132
 
 Excited State   4:      Triplet-A      3.0600 eV  405.18 nm  f=0.0000  <S**2>=2.000
      45 -> 49         0.10449
      46 -> 49         0.68670
 
 Excited State   5:      Singlet-A      3.3614 eV  368.84 nm  f=0.0000  <S**2>=0.000
      46 -> 49         0.69951
 
 Excited State   6:      Triplet-A      3.4566 eV  358.69 nm  f=0.0000  <S**2>=2.000
      45 -> 49         0.68107
      46 -> 49        -0.10290
      46 -> 54         0.11147
 
 Excited State   7:      Singlet-A      3.5536 eV  348.90 nm  f=0.0017  <S**2>=0.000
      47 -> 49         0.69742
 
 Excited State   8:      Singlet-A      3.7601 eV  329.74 nm  f=0.0001  <S**2>=0.000
      45 -> 49         0.69709
 
 Excited State   9:      Triplet-A      3.8093 eV  325.48 nm  f=0.0000  <S**2>=2.000
      42 -> 49        -0.17375
      44 -> 49         0.27703
      47 -> 49         0.17994
      47 -> 50         0.20017
      48 -> 50         0.54736
 
 Excited State  10:      Triplet-A      4.4011 eV  281.71 nm  f=0.0000  <S**2>=2.000
      40 -> 49        -0.23384
      42 -> 49         0.37044
      44 -> 49        -0.12717
      47 -> 49         0.13002
      47 -> 52        -0.19032
      48 -> 50         0.19601
      48 -> 52         0.42508
 
 Excited State  11:      Singlet-A      4.9205 eV  251.98 nm  f=0.0681  <S**2>=0.000
      44 -> 49        -0.28799
      48 -> 50         0.63159
 
 Excited State  12:      Singlet-A      5.1147 eV  242.41 nm  f=0.0001  <S**2>=0.000
      43 -> 49         0.69542
      43 -> 50        -0.10325
 SavETr:  write IOETrn=   770 NScale= 10 NData=  16 NLR=1 NState=   12 LETran=     226.

 **********************************************************************

            Population analysis using the SCF Density.

 **********************************************************************

 Orbital symmetries:
       Occupied  (A) (A) (A) (A) (A) (A) (A) (A) (A) (A) (A) (A)
                 (A) (A) (A) (A) (A) (A) (A) (A) (A) (A) (A) (A)
                 (A) (A) (A) (A) (A) (A) (A) (A) (A) (A) (A) (A)
                 (A) (A) (A) (A) (A) (A) (A) (A) (A) (A) (A) (A)
       Virtual   (A) (A) (A) (A) (A) (A) (A) (A) (A) (A) (A) (A)
                 (A) (A) (A) (A) (A) (A) (A) (A) (A) (A) (A) (A)
                 (A) (A) (A) (A) (A) (A) (A) (A) (A) (A) (A) (A)
                 (A) (A) (A) (A) (A) (A) (A) (A) (A) (A) (A) (A)
                 (A) (A) (A) (A) (A) (A) (A) (A) (A) (A) (A) (A)
                 (A) (A) (A) (A) (A) (A) (A) (A) (A) (A) (A) (A)
                 (A) (A) (A) (A) (A) (A) (A) (A) (A) (A) (A) (A)
                 (A) (A) (A) (A) (A) (A) (A) (A) (A) (A) (A) (A)
                 (A) (A) (A) (A) (A) (A) (A) (A) (A) (A) (A) (A)
                 (A) (A) (A) (A) (A) (A) (A) (A) (A) (A) (A) (A)
                 (A) (A) (A) (A) (A) (A) (A) (A) (A) (A) (A) (A)
                 (A) (A) (A) (A) (A) (A) (A) (A) (A) (A) (A) (A)
                 (A) (A) (A) (A) (A) (A) (A) (A) (A) (A) (A) (A)
                 (A) (A) (A) (A) (A) (A) (A) (A) (A) (A) (A) (A)
                 (A) (A) (A) (A) (A) (A) (A) (A) (A) (A) (A) (A)
                 (A) (A) (A) (A) (A) (A) (A) (A) (A) (A) (A) (A)
                 (A) (A) (A) (A) (A) (A) (A) (A) (A) (A) (A) (A)
                 (A) (A) (A) (A) (A) (A) (A) (A) (A) (A) (A) (A)
                 (A) (A) (A) (A) (A) (A) (A) (A) (A) (A) (A) (A)
                 (A) (A) (A) (A) (A) (A) (A) (A) (A) (A) (A) (A)
                 (A) (A) (A) (A) (A) (A) (A) (A) (A) (A) (A) (A)
                 (A) (A) (A) (A) (A) (A) (A) (A) (A) (A) (A) (A)
                 (A) (A) (A) (A) (A) (A) (A) (A) (A) (A) (A) (A)
                 (A) (A) (A)
 The electronic state is 1-A.
 Alpha  occ. eigenvalues --  -19.22667 -19.22577 -19.17109 -19.16545 -14.35699
 Alpha  occ. eigenvalues --  -10.35370 -10.35108 -10.31650 -10.29399 -10.26204
 Alpha  occ. eigenvalues --  -10.25836 -10.24951 -10.23851 -10.22504  -1.16974
 Alpha  occ. eigenvalues --   -1.16874  -1.09504  -1.09175  -0.95011  -0.90167
 Alpha  occ. eigenvalues --   -0.85353  -0.80905  -0.77025  -0.70092  -0.66566
 Alpha  occ. eigenvalues --   -0.63303  -0.60945  -0.58880  -0.54897  -0.52760
 Alpha  occ. eigenvalues --   -0.51642  -0.51464  -0.50632  -0.48365  -0.48245
 Alpha  occ. eigenvalues --   -0.46244  -0.44459  -0.43067  -0.42822  -0.41324
 Alpha  occ. eigenvalues --   -0.40378  -0.38903  -0.38165  -0.37850  -0.34189
 Alpha  occ. eigenvalues --   -0.32662  -0.32132  -0.26400
 Alpha virt. eigenvalues --   -0.16192  -0.06245  -0.02745  -0.02618  -0.01638
 Alpha virt. eigenvalues --   -0.01392  -0.00629   0.01223   0.01366   0.02581
 Alpha virt. eigenvalues --    0.03066   0.04557   0.04585   0.04925   0.06433
 Alpha virt. eigenvalues --    0.06475   0.07263   0.07514   0.07870   0.08379
 Alpha virt. eigenvalues --    0.09283   0.09713   0.09847   0.10113   0.10626
 Alpha virt. eigenvalues --    0.10891   0.11235   0.11758   0.12273   0.12808
 Alpha virt. eigenvalues --    0.13035   0.14201   0.14461   0.15209   0.15888
 Alpha virt. eigenvalues --    0.16121   0.16388   0.17263   0.17475   0.18250
 Alpha virt. eigenvalues --    0.19303   0.19680   0.19859   0.20068   0.21559
 Alpha virt. eigenvalues --    0.22011   0.22674   0.23083   0.23289   0.24682
 Alpha virt. eigenvalues --    0.24933   0.26092   0.26543   0.26602   0.26856
 Alpha virt. eigenvalues --    0.27312   0.27960   0.28151   0.28368   0.29220
 Alpha virt. eigenvalues --    0.29493   0.29967   0.30283   0.31054   0.31601
 Alpha virt. eigenvalues --    0.32748   0.33698   0.33774   0.34643   0.36241
 Alpha virt. eigenvalues --    0.36905   0.37747   0.39042   0.39414   0.40468
 Alpha virt. eigenvalues --    0.42282   0.43877   0.46345   0.47064   0.48423
 Alpha virt. eigenvalues --    0.50347   0.51369   0.52786   0.53006   0.53035
 Alpha virt. eigenvalues --    0.54423   0.55380   0.56655   0.58697   0.59044
 Alpha virt. eigenvalues --    0.60680   0.62315   0.62451   0.63125   0.63851
 Alpha virt. eigenvalues --    0.66127   0.67556   0.68548   0.70327   0.73010
 Alpha virt. eigenvalues --    0.74374   0.75292   0.77878   0.78287   0.79200
 Alpha virt. eigenvalues --    0.80832   0.82107   0.83433   0.83926   0.87318
 Alpha virt. eigenvalues --    0.87607   0.88530   0.88541   0.90926   0.91710
 Alpha virt. eigenvalues --    0.93284   0.94592   0.97074   0.98306   0.99281
 Alpha virt. eigenvalues --    0.99918   1.01393   1.01935   1.03117   1.03637
 Alpha virt. eigenvalues --    1.04071   1.06337   1.06838   1.08917   1.11010
 Alpha virt. eigenvalues --    1.12246   1.12936   1.16055   1.17339   1.18074
 Alpha virt. eigenvalues --    1.18577   1.20898   1.22386   1.22461   1.22989
 Alpha virt. eigenvalues --    1.23310   1.24171   1.25379   1.27131   1.33576
 Alpha virt. eigenvalues --    1.33594   1.35474   1.37446   1.41616   1.44613
 Alpha virt. eigenvalues --    1.45578   1.48830   1.50544   1.53293   1.56128
 Alpha virt. eigenvalues --    1.56223   1.60469   1.62605   1.64283   1.66876
 Alpha virt. eigenvalues --    1.68178   1.68864   1.70238   1.72129   1.74549
 Alpha virt. eigenvalues --    1.75457   1.77185   1.78781   1.80245   1.80943
 Alpha virt. eigenvalues --    1.81857   1.83551   1.90133   1.94388   1.95267
 Alpha virt. eigenvalues --    1.96205   1.97909   2.00463   2.00738   2.02550
 Alpha virt. eigenvalues --    2.03464   2.05886   2.06730   2.09211   2.14236
 Alpha virt. eigenvalues --    2.18394   2.25858   2.30807   2.33136   2.35559
 Alpha virt. eigenvalues --    2.41607   2.48645   2.51457   2.56245   2.57576
 Alpha virt. eigenvalues --    2.58273   2.62678   2.65925   2.66755   2.67345
 Alpha virt. eigenvalues --    2.73408   2.73708   2.77247   2.77459   2.79902
 Alpha virt. eigenvalues --    2.80338   2.81741   2.83302   2.84708   2.85835
 Alpha virt. eigenvalues --    2.88415   2.90701   2.91147   2.92163   2.93074
 Alpha virt. eigenvalues --    2.96070   2.96477   2.99021   3.03366   3.06910
 Alpha virt. eigenvalues --    3.07274   3.08109   3.10517   3.11283   3.11955
 Alpha virt. eigenvalues --    3.13175   3.22547   3.24523   3.26803   3.29961
 Alpha virt. eigenvalues --    3.33954   3.34647   3.37861   3.42748   3.47889
 Alpha virt. eigenvalues --    3.49224   3.56565   3.60196   3.65412   3.72084
 Alpha virt. eigenvalues --    3.78603   3.94431   3.95492   3.98965   4.00454
 Alpha virt. eigenvalues --    4.01833   4.03455   4.05048   4.06953   4.28871
 Alpha virt. eigenvalues --    4.33000   4.50892   4.59693   4.92110   4.94431
 Alpha virt. eigenvalues --    5.00013   5.01073   5.14939   5.16082   5.36160
 Alpha virt. eigenvalues --    5.40186   5.63702   5.65399   5.83190   5.84705
 Alpha virt. eigenvalues --   23.54540  23.69212  23.79381  23.82760  23.84802
 Alpha virt. eigenvalues --   24.08898  24.12839  24.17177  24.49739  35.86241
 Alpha virt. eigenvalues --   49.83866  49.86867  50.01567  50.03351
          Condensed to atoms (all electrons):
               1          2          3          4          5          6
     1  C    8.209401  -1.901405  -0.024874   0.790660  -0.019581  -0.791881
     2  C   -1.901405  11.979763   0.420541  -2.640964  -0.035189   0.066158
     3  H   -0.024874   0.420541   0.441891  -0.059519  -0.004952  -0.004623
     4  C    0.790660  -2.640964  -0.059519   7.743807   0.442025  -0.615773
     5  H   -0.019581  -0.035189  -0.004952   0.442025   0.471490  -0.006432
     6  C   -0.791881   0.066158  -0.004623  -0.615773  -0.006432   7.219767
     7  O    0.058811  -0.080319  -0.001460   0.094114   0.000709   0.240284
     8  O   -0.261757   0.275521   0.003988  -0.208180  -0.071085   0.316921
     9  C    0.031884  -1.272880   0.008304   0.594888  -0.005978  -0.570516
    10  C   -1.252477  -0.710786  -0.004228   0.306171  -0.003693  -0.182166
    11  H    0.037966   0.044364   0.000066   0.004650   0.000231  -0.027431
    12  C    1.235046   0.639688   0.015863  -0.291964   0.001035  -0.000186
    13  C   -0.237418  -0.317037   0.000691   0.077566  -0.000962   0.187795
    14  O   -0.041443  -0.069448  -0.010376   0.043287   0.000646  -0.012564
    15  O   -0.111430  -0.009008  -0.000930   0.013252  -0.000247  -0.012143
    16  C    0.125136  -0.457596  -0.004498   0.001220  -0.000126   0.325727
    17  N    0.009095   0.006584   0.000108  -0.000218   0.000003  -0.005970
               7          8          9         10         11         12
     1  C    0.058811  -0.261757   0.031884  -1.252477   0.037966   1.235046
     2  C   -0.080319   0.275521  -1.272880  -0.710786   0.044364   0.639688
     3  H   -0.001460   0.003988   0.008304  -0.004228   0.000066   0.015863
     4  C    0.094114  -0.208180   0.594888   0.306171   0.004650  -0.291964
     5  H    0.000709  -0.071085  -0.005978  -0.003693   0.000231   0.001035
     6  C    0.240284   0.316921  -0.570516  -0.182166  -0.027431  -0.000186
     7  O    8.009349  -0.056771  -0.041848  -0.024024  -0.007311   0.075951
     8  O   -0.056771   8.086536  -0.060326  -0.010700   0.000025   0.040040
     9  C   -0.041848  -0.060326   8.634930   2.778223  -0.036998  -1.806931
    10  C   -0.024024  -0.010700   2.778223  12.264594   0.351234  -3.730595
    11  H   -0.007311   0.000025  -0.036998   0.351234   0.441397   0.063270
    12  C    0.075951   0.040040  -1.806931  -3.730595   0.063270  17.364366
    13  C   -0.006836  -0.001369  -1.469028  -0.261172   0.012216  -0.058695
    14  O    0.000267  -0.000519   0.107047   0.018866  -0.000939   0.027422
    15  O   -0.000090  -0.000182   0.171405   0.648931   0.002820  -0.204635
    16  C    0.002862   0.002288  -1.786862  -4.618272  -0.147989  -9.202624
    17  N    0.000050  -0.000003   0.024653   0.083760   0.006161   1.100236
              13         14         15         16         17
     1  C   -0.237418  -0.041443  -0.111430   0.125136   0.009095
     2  C   -0.317037  -0.069448  -0.009008  -0.457596   0.006584
     3  H    0.000691  -0.010376  -0.000930  -0.004498   0.000108
     4  C    0.077566   0.043287   0.013252   0.001220  -0.000218
     5  H   -0.000962   0.000646  -0.000247  -0.000126   0.000003
     6  C    0.187795  -0.012564  -0.012143   0.325727  -0.005970
     7  O   -0.006836   0.000267  -0.000090   0.002862   0.000050
     8  O   -0.001369  -0.000519  -0.000182   0.002288  -0.000003
     9  C   -1.469028   0.107047   0.171405  -1.786862   0.024653
    10  C   -0.261172   0.018866   0.648931  -4.618272   0.083760
    11  H    0.012216  -0.000939   0.002820  -0.147989   0.006161
    12  C   -0.058695   0.027422  -0.204635  -9.202624   1.100236
    13  C    7.316393   0.250960   0.204137   0.397597  -0.003333
    14  O    0.250960   8.011859  -0.050697   0.009220  -0.000109
    15  O    0.204137  -0.050697   8.202458  -0.811781   0.006090
    16  C    0.397597   0.009220  -0.811781  24.516480  -0.977936
    17  N   -0.003333  -0.000109   0.006090  -0.977936   6.912633
 Mulliken charges:
               1
     1  C    0.144267
     2  C    0.062015
     3  H    0.224008
     4  C   -0.295022
     5  H    0.232105
     6  C   -0.126968
     7  O   -0.263737
     8  O   -0.054426
     9  C    0.700031
    10  C    0.346333
    11  H    0.256267
    12  C    0.732713
    13  C   -0.091505
    14  O   -0.283482
    15  O   -0.047951
    16  C   -1.372845
    17  N   -0.161804
 Sum of Mulliken charges =  -0.00000
 Mulliken charges with hydrogens summed into heavy atoms:
               1
     1  C    0.144267
     2  C    0.286023
     4  C   -0.062917
     6  C   -0.126968
     7  O   -0.263737
     8  O   -0.054426
     9  C    0.700031
    10  C    0.602600
    12  C    0.732713
    13  C   -0.091505
    14  O   -0.283482
    15  O   -0.047951
    16  C   -1.372845
    17  N   -0.161804
 Electronic spatial extent (au):  <R**2>=           2903.8705
 Charge=             -0.0000 electrons
 Dipole moment (field-independent basis, Debye):
    X=              4.7216    Y=              1.2340    Z=              0.0007  Tot=              4.8802
 Quadrupole moment (field-independent basis, Debye-Ang):
   XX=            -87.9459   YY=            -90.7640   ZZ=            -76.6780
   XY=              6.8577   XZ=              0.0057   YZ=              0.0014
 Traceless Quadrupole moment (field-independent basis, Debye-Ang):
   XX=             -2.8166   YY=             -5.6346   ZZ=              8.4513
   XY=              6.8577   XZ=              0.0057   YZ=              0.0014
 Octapole moment (field-independent basis, Debye-Ang**2):
  XXX=            164.8536  YYY=             -1.7436  ZZZ=             -0.0041  XYY=             10.9441
  XXY=             60.1039  XXZ=              0.0019  XZZ=              1.8096  YZZ=              0.2345
  YYZ=              0.0024  XYZ=             -0.0057
 Hexadecapole moment (field-independent basis, Debye-Ang**3):
 XXXX=          -3280.6435 YYYY=           -955.7075 ZZZZ=            -77.3450 XXXY=            -89.8068
 XXXZ=              0.1346 YYYX=             17.7079 YYYZ=              0.0026 ZZZX=              0.0012
 ZZZY=             -0.0001 XXYY=           -696.2208 XXZZ=           -498.1742 YYZZ=           -153.7518
 XXYZ=              0.0377 YYXZ=              0.0185 ZZXY=            -20.2244
 N-N= 7.879428264782D+02 E-N=-3.213467530105D+03  KE= 6.980610726775D+02
 Unable to Open any file for archive entry.
 1\1\GINC-N2\SP\RB3LYP TD-FC\6-311++G(d,p)\C9H3N1O4\HPCMGAC13\20-Sep-20
 25\0\\# td=(50-50,nstates=6) b3lyp/6-311++g(d,p) geom=connectivity\\Ti
 tle Card Required\\0,1\C,0,-1.282647,0.123337,0.000012\C,0,-2.277586,1
 .154873,-0.000035\H,0,-2.103086,2.217651,-0.000041\C,0,-3.475622,0.530
 569,-0.0006\H,0,-4.479228,0.926979,-0.000848\C,0,-2.036488,-1.170717,0
 .000064\O,0,-1.660126,-2.303383,0.000515\O,0,-3.393545,-0.837369,-0.00
 0241\C,0,0.080385,0.194395,0.000104\C,0,1.066463,-0.845934,0.000358\H,
 0,0.889347,-1.908522,0.000684\C,0,2.273578,-0.229418,-0.000109\C,0,0.8
 34115,1.481027,0.000175\O,0,0.462621,2.615967,0.000195\O,0,2.192777,1.
 148144,0.000271\C,0,3.570811,-0.792927,-0.000328\N,0,4.623011,-1.27060
 1,-0.000509\\Version=ES64L-G16RevC.02\State=1-A\HF=-700.5475025\RMSD=5
 .501e-09\PG=C01 [X(C9H3N1O4)]\\@
 The archive entry for this job was punched.


 GOORD'S AXIOM:  A MEETING IS AN EVENT AT WHICH
 THE MINUTES ARE KEPT AND THE HOURS ARE LOST.
 Job cpu time:       0 days  0 hours 33 minutes 25.4 seconds.
 Elapsed time:       0 days  0 hours  4 minutes 16.5 seconds.
 File lengths (MBytes):  RWF=    856 Int=      0 D2E=      0 Chk=     48 Scr=      2
 Normal termination of Gaussian 16 at Sat Sep 20 15:09:44 2025.
