 Entering Gaussian System, Link 0=g16
 Input=c1nme2eng.gjf
 Output=c1nme2eng.log
 Initial command:
 /hpc/softwares/Gaussian/g16/l1.exe "/hpc/home/hpcmgac13/pbs.14188.admin1.x8z/Gau-4177255.inp" -scrdir="/hpc/home/hpcmgac13/pbs.14188.admin1.x8z/"
 Default linda workers: n2
 Default is to use   8 SMP processors on each worker.
 Entering Link 1 = /hpc/softwares/Gaussian/g16/l1.exe PID=   4177256.
  
 Copyright (c) 1988-2021, Gaussian, Inc.  All Rights Reserved.
  
 This is part of the Gaussian(R) 16 program.  It is based on
 the Gaussian(R) 09 system (copyright 2009, Gaussian, Inc.),
 the Gaussian(R) 03 system (copyright 2003, Gaussian, Inc.),
 the Gaussian(R) 98 system (copyright 1998, Gaussian, Inc.),
 the Gaussian(R) 94 system (copyright 1995, Gaussian, Inc.),
 the Gaussian 92(TM) system (copyright 1992, Gaussian, Inc.),
 the Gaussian 90(TM) system (copyright 1990, Gaussian, Inc.),
 the Gaussian 88(TM) system (copyright 1988, Gaussian, Inc.),
 the Gaussian 86(TM) system (copyright 1986, Carnegie Mellon
 University), and the Gaussian 82(TM) system (copyright 1983,
 Carnegie Mellon University). Gaussian is a federally registered
 trademark of Gaussian, Inc.
  
 This software contains proprietary and confidential information,
 including trade secrets, belonging to Gaussian, Inc.
  
 This software is provided under written license and may be
 used, copied, transmitted, or stored only in accord with that
 written license.
  
 The following legend is applicable only to US Government
 contracts under FAR:
  
                    RESTRICTED RIGHTS LEGEND
  
 Use, reproduction and disclosure by the US Government is
 subject to restrictions as set forth in subparagraphs (a)
 and (c) of the Commercial Computer Software - Restricted
 Rights clause in FAR 52.227-19.
  
 Gaussian, Inc.
 340 Quinnipiac St., Bldg. 40, Wallingford CT 06492
  
  
 ---------------------------------------------------------------
 Warning -- This program may not be used in any manner that
 competes with the business of Gaussian, Inc. or will provide
 assistance to any competitor of Gaussian, Inc.  The licensee
 of this program is prohibited from giving any competitor of
 Gaussian, Inc. access to this program.  By using this program,
 the user acknowledges that Gaussian, Inc. is engaged in the
 business of creating and licensing software in the field of
 computational chemistry and represents and warrants to the
 licensee that it is not a competitor of Gaussian, Inc. and that
 it will not use this program in any manner prohibited above.
 ---------------------------------------------------------------
  

 Cite this work as:
 Gaussian 16, Revision C.02,
 M. J. Frisch, G. W. Trucks, H. B. Schlegel, G. E. Scuseria, 
 M. A. Robb, J. R. Cheeseman, G. Scalmani, V. Barone, 
 G. A. Petersson, H. Nakatsuji, X. Li, M. Caricato, A. V. Marenich, 
 J. Bloino, B. G. Janesko, R. Gomperts, B. Mennucci, H. P. Hratchian, 
 J. V. Ortiz, A. F. Izmaylov, J. L. Sonnenberg, D. Williams-Young, 
 F. Ding, F. Lipparini, F. Egidi, J. Goings, B. Peng, A. Petrone, 
 T. Henderson, D. Ranasinghe, V. G. Zakrzewski, J. Gao, N. Rega, 
 G. Zheng, W. Liang, M. Hada, M. Ehara, K. Toyota, R. Fukuda, 
 J. Hasegawa, M. Ishida, T. Nakajima, Y. Honda, O. Kitao, H. Nakai, 
 T. Vreven, K. Throssell, J. A. Montgomery, Jr., J. E. Peralta, 
 F. Ogliaro, M. J. Bearpark, J. J. Heyd, E. N. Brothers, K. N. Kudin, 
 V. N. Staroverov, T. A. Keith, R. Kobayashi, J. Normand, 
 K. Raghavachari, A. P. Rendell, J. C. Burant, S. S. Iyengar, 
 J. Tomasi, M. Cossi, J. M. Millam, M. Klene, C. Adamo, R. Cammi, 
 J. W. Ochterski, R. L. Martin, K. Morokuma, O. Farkas, 
 J. B. Foresman, and D. J. Fox, Gaussian, Inc., Wallingford CT, 2019.
 
 ******************************************
 Gaussian 16:  ES64L-G16RevC.02  7-Dec-2021
                20-Sep-2025 
 ******************************************
 %chk=C1 nme2 opt.chk
 SetLPE:    new flags="-opt 'Tsnet.Node.lindarsharg: ssh'  -nodelist 'n2.head.cm.mguif.local' -env GAUSS_MDEF=2415919104 -env GAUSS_EXEDIR="/hpc/softwares/Gaussian/g16/bsd:/hpc/softwares/Gaussian/g16""
 Will use up to    1 processors via Linda.
 ------------------------------------------------------------
 # td=(50-50,nstates=6) b3lyp/6-311++g(d,p) geom=connectivity
 ------------------------------------------------------------
 1/38=1,57=2,172=1/1;
 2/12=2,17=6,18=5,40=1/2;
 3/5=4,6=6,7=1111,11=9,25=1,30=1,74=-5/1,2,3,8;
 4//1;
 5/5=2,38=5/2;
 8/6=1,10=2,108=6/1;
 9/41=6,42=1,48=2,70=2/14;
 6/7=2,8=2,9=2,10=2/1;
 99/5=1,9=1/99;
 -------------------
 Title Card Required
 -------------------
 Symbolic Z-matrix:
 Charge =  0 Multiplicity = 1
 C                    -1.74442   0.13751   0.0001 
 C                    -2.7937    1.12475   0.01237 
 H                    -2.67202   2.19497   0.0086 
 C                    -3.95819   0.44668   0.02787 
 C                    -2.41698  -1.17511   0.01138 
 O                    -1.98047  -2.29743   0.00899 
 O                    -3.79067  -0.92114   0.02796 
 C                    -0.37692   0.26725  -0.01858 
 C                     0.64846  -0.71156  -0.02085 
 H                     0.49791  -1.77594   0.00285 
 C                     1.85195  -0.03796  -0.04108 
 C                     0.30556   1.58828  -0.0291 
 O                    -0.09866   2.71034  -0.02953 
 O                     1.69359   1.32468  -0.03906 
 H                    -4.98241   0.78306   0.03972 
 N                     3.11714  -0.48457  -0.08609 
 C                     3.35695  -1.92195  -0.03554 
 H                     4.34328  -2.12644  -0.45278 
 H                     3.32103  -2.30278   0.99198 
 H                     2.61402  -2.44851  -0.6345 
 C                     4.26061   0.39612   0.14391 
 H                     5.05943   0.13498  -0.55356 
 H                     3.97134   1.43054  -0.01734 
 H                     4.63723   0.28658   1.16784 
 
                          Input orientation:                          
 ---------------------------------------------------------------------
 Center     Atomic      Atomic             Coordinates (Angstroms)
 Number     Number       Type             X           Y           Z
 ---------------------------------------------------------------------
      1          6           0       -1.744420    0.137511    0.000103
      2          6           0       -2.793700    1.124753    0.012371
      3          1           0       -2.672024    2.194969    0.008596
      4          6           0       -3.958193    0.446681    0.027866
      5          6           0       -2.416984   -1.175109    0.011382
      6          8           0       -1.980471   -2.297432    0.008985
      7          8           0       -3.790667   -0.921144    0.027962
      8          6           0       -0.376921    0.267252   -0.018583
      9          6           0        0.648464   -0.711561   -0.020850
     10          1           0        0.497908   -1.775944    0.002848
     11          6           0        1.851945   -0.037960   -0.041079
     12          6           0        0.305562    1.588277   -0.029096
     13          8           0       -0.098661    2.710335   -0.029527
     14          8           0        1.693589    1.324679   -0.039058
     15          1           0       -4.982407    0.783064    0.039720
     16          7           0        3.117145   -0.484573   -0.086085
     17          6           0        3.356947   -1.921954   -0.035540
     18          1           0        4.343276   -2.126440   -0.452778
     19          1           0        3.321030   -2.302780    0.991977
     20          1           0        2.614015   -2.448514   -0.634501
     21          6           0        4.260609    0.396120    0.143907
     22          1           0        5.059428    0.134978   -0.553557
     23          1           0        3.971343    1.430536   -0.017336
     24          1           0        4.637228    0.286581    1.167841
 ---------------------------------------------------------------------
                    Distance matrix (angstroms):
                    1          2          3          4          5
     1  C    0.000000
     2  C    1.440759   0.000000
     3  H    2.256913   1.077117   0.000000
     4  C    2.235430   1.347615   2.170510   0.000000
     5  C    1.474938   2.330511   3.379716   2.237364   0.000000
     6  O    2.446374   3.517485   4.545318   3.382587   1.204225
     7  O    2.304052   2.275935   3.310876   1.378046   1.397061
     8  C    1.373767   2.564583   2.997387   3.586065   2.498632
     9  C    2.539145   3.901493   4.412984   4.750283   3.100466
    10  H    2.947771   4.387347   5.081009   4.979711   2.976184
    11  C    3.600879   4.789235   5.045269   5.830723   4.418101
    12  C    2.511573   3.134007   3.038999   4.414305   3.879458
    13  O    3.054312   3.127149   2.624739   4.474753   4.524707
    14  O    3.637418   4.492035   4.451770   5.719965   4.811267
    15  H    3.301949   2.215387   2.707825   1.078104   3.227482
    16  N    4.901962   6.126803   6.379921   7.137270   5.577896
    17  C    5.501510   6.864050   7.300650   7.689325   5.822221
    18  H    6.510808   7.856402   8.252386   8.704387   6.842630
    19  H    5.709432   7.077961   7.557346   7.840672   5.929419
    20  H    5.107465   6.513836   7.065247   7.212129   5.229692
    21  C    6.012315   7.093059   7.163488   8.219777   6.861237
    22  H    6.826338   7.935461   8.020906   9.041720   7.611322
    23  H    5.860219   6.772015   6.687253   7.990467   6.899343
    24  H    6.489319   7.566792   7.642706   8.672165   7.296290
                    6          7          8          9         10
     6  O    0.000000
     7  O    2.274058   0.000000
     8  C    3.024853   3.614985   0.000000
     9  C    3.070371   4.444344   1.417566   0.000000
    10  H    2.532657   4.373007   2.222709   1.075239   0.000000
    11  C    4.449172   5.711729   2.249779   1.379317   2.203618
    12  C    4.508451   4.804117   1.486943   2.325275   3.369867
    13  O    5.349806   5.178982   2.458903   3.502520   4.525886
    14  O    5.159526   5.926658   2.324991   2.288862   3.323443
    15  H    4.301397   2.079593   4.634648   5.826172   6.048449
    16  N    5.411209   6.922533   3.574674   2.479953   2.921635
    17  C    5.350794   7.217620   4.328358   2.966673   2.863022
    18  H    6.342889   8.236800   5.310230   3.979960   3.888097
    19  H    5.391866   7.308521   4.615316   3.271147   3.037425
    20  H    4.641789   6.617527   4.086617   2.693875   2.310081
    21  C    6.798861   8.159147   4.642165   3.781758   4.346916
    22  H    7.469488   8.931839   5.464209   4.522942   4.976814
    23  H    7.023000   8.110564   4.501181   3.953494   4.727227
    24  H    7.198195   8.589956   5.152637   4.280130   4.769192
                   11         12         13         14         15
    11  C    0.000000
    12  C    2.244124   0.000000
    13  O    3.370181   1.192649   0.000000
    14  O    1.371811   1.412870   2.265457   0.000000
    15  H    6.883965   5.349366   5.250728   6.698393   0.000000
    16  N    1.342468   3.493559   4.533436   2.302632   8.199114
    17  C    2.411326   4.651098   5.779218   3.647931   8.767418
    18  H    3.276885   5.502887   6.580603   4.370610   9.781418
    19  H    2.890471   5.027520   6.153786   4.107317   8.909337
    20  H    2.596858   4.689472   5.859891   3.929214   8.282711
    21  C    2.454446   4.134436   4.938512   2.735926   9.251699
    22  H    3.252766   4.998638   5.789037   3.606795  10.080201
    23  H    2.578545   3.669192   4.266493   2.280316   8.977311
    24  H    3.053623   4.678718   5.453157   3.346530   9.698275
                   16         17         18         19         20
    16  N    0.000000
    17  C    1.458123   0.000000
    18  H    2.081727   1.090297   0.000000
    19  H    2.123597   1.096408   1.778595   0.000000
    20  H    2.100230   1.089939   1.768360   1.779477   0.000000
    21  C    1.461515   2.494448   2.593487   2.980955   3.377741
    22  H    2.091611   2.719881   2.374245   3.369476   3.558234
    23  H    2.098100   3.408372   3.602780   3.921641   4.155750
    24  H    2.116048   2.822211   2.921555   2.909999   3.850009
                   21         22         23         24
    21  C    0.000000
    22  H    1.092137   0.000000
    23  H    1.086136   1.774805   0.000000
    24  H    1.096486   1.778889   1.776705   0.000000
 Stoichiometry    C10H9NO4
 Framework group  C1[X(C10H9NO4)]
 Deg. of freedom    66
 Full point group                 C1      NOp   1
 Largest Abelian subgroup         C1      NOp   1
 Largest concise Abelian subgroup C1      NOp   1
                         Standard orientation:                         
 ---------------------------------------------------------------------
 Center     Atomic      Atomic             Coordinates (Angstroms)
 Number     Number       Type             X           Y           Z
 ---------------------------------------------------------------------
      1          6           0       -1.744420    0.137511    0.000103
      2          6           0       -2.793700    1.124753    0.012371
      3          1           0       -2.672024    2.194969    0.008596
      4          6           0       -3.958193    0.446681    0.027866
      5          6           0       -2.416984   -1.175109    0.011382
      6          8           0       -1.980471   -2.297432    0.008985
      7          8           0       -3.790667   -0.921144    0.027962
      8          6           0       -0.376921    0.267252   -0.018583
      9          6           0        0.648464   -0.711561   -0.020850
     10          1           0        0.497908   -1.775944    0.002848
     11          6           0        1.851945   -0.037960   -0.041079
     12          6           0        0.305562    1.588277   -0.029096
     13          8           0       -0.098661    2.710335   -0.029527
     14          8           0        1.693589    1.324679   -0.039058
     15          1           0       -4.982407    0.783064    0.039720
     16          7           0        3.117145   -0.484573   -0.086085
     17          6           0        3.356947   -1.921954   -0.035540
     18          1           0        4.343276   -2.126440   -0.452778
     19          1           0        3.321030   -2.302780    0.991977
     20          1           0        2.614015   -2.448514   -0.634501
     21          6           0        4.260609    0.396120    0.143907
     22          1           0        5.059428    0.134978   -0.553557
     23          1           0        3.971343    1.430536   -0.017336
     24          1           0        4.637228    0.286581    1.167841
 ---------------------------------------------------------------------
 Rotational constants (GHZ):           1.2813439           0.3607295           0.2826675
 Standard basis: 6-311++G(d,p) (5D, 7F)
 There are   408 symmetry adapted cartesian basis functions of A   symmetry.
 There are   393 symmetry adapted basis functions of A   symmetry.
   393 basis functions,   621 primitive gaussians,   408 cartesian basis functions
    54 alpha electrons       54 beta electrons
       nuclear repulsion energy       960.1648332914 Hartrees.
 NAtoms=   24 NActive=   24 NUniq=   24 SFac= 1.00D+00 NAtFMM=   60 NAOKFM=F Big=F
 Integral buffers will be    131072 words long.
 Regular integral format.
 Two-electron integral symmetry is turned on.
 One-electron integrals computed using PRISM.
 NBasis=   393 RedAO= T EigKep=  2.40D-06  NBF=   393
 NBsUse=   391 1.00D-06 EigRej=  4.99D-07 NBFU=   391
 ExpMin= 3.60D-02 ExpMax= 8.59D+03 ExpMxC= 1.30D+03 IAcc=3 IRadAn=         5 AccDes= 0.00D+00
 Harris functional with IExCor=  402 and IRadAn=       5 diagonalized for initial guess.
 HarFok:  IExCor=  402 AccDes= 0.00D+00 IRadAn=         5 IDoV= 1 UseB2=F ITyADJ=14
 ICtDFT=  3500011 ScaDFX=  1.000000  1.000000  1.000000  1.000000
 FoFCou: FMM=F IPFlag=           0 FMFlag=      100000 FMFlg1=           0
         NFxFlg=           0 DoJE=T BraDBF=F KetDBF=T FulRan=T
         wScrn=  0.000000 ICntrl=       500 IOpCl=  0 I1Cent=   200000004 NGrid=           0
         NMat0=    1 NMatS0=      1 NMatT0=    0 NMatD0=    1 NMtDS0=    0 NMtDT0=    0
 Petite list used in FoFCou.
 Requested convergence on RMS density matrix=1.00D-08 within 128 cycles.
 Requested convergence on MAX density matrix=1.00D-06.
 Requested convergence on             energy=1.00D-06.
 No special actions if energy rises.
 SCF Done:  E(RB3LYP) =  -742.316877055     A.U. after   16 cycles
            NFock= 16  Conv=0.38D-08     -V/T= 2.0038
 DoSCS=F DFT=T ScalE2(SS,OS)=  1.000000  1.000000
 ExpMin= 3.60D-02 ExpMax= 8.59D+03 ExpMxC= 1.30D+03 IAcc=3 IRadAn=         5 AccDes= 0.00D+00
 HarFok:  IExCor=  205 AccDes= 0.00D+00 IRadAn=         5 IDoV=-2 UseB2=F ITyADJ=14
 ICtDFT= 12500011 ScaDFX=  1.000000  1.000000  1.000000  1.000000
 Range of M.O.s used for correlation:    16   391
 NBasis=   393 NAE=    54 NBE=    54 NFC=    15 NFV=     0
 NROrb=    376 NOA=    39 NOB=    39 NVA=   337 NVB=   337

 **** Warning!!: The largest alpha MO coefficient is  0.10940974D+03


 **** Warning!!: The smallest alpha delta epsilon is  0.96609825D-01

 Orbital symmetries:
       Occupied  (A) (A) (A) (A) (A) (A) (A) (A) (A) (A) (A) (A)
                 (A) (A) (A) (A) (A) (A) (A) (A) (A) (A) (A) (A)
                 (A) (A) (A) (A) (A) (A) (A) (A) (A) (A) (A) (A)
                 (A) (A) (A) (A) (A) (A) (A) (A) (A) (A) (A) (A)
                 (A) (A) (A) (A) (A) (A)
       Virtual   (A) (A) (A) (A) (A) (A) (A) (A) (A) (A) (A) (A)
                 (A) (A) (A) (A) (A) (A) (A) (A) (A) (A) (A) (A)
                 (A) (A) (A) (A) (A) (A) (A) (A) (A) (A) (A) (A)
                 (A) (A) (A) (A) (A) (A) (A) (A) (A) (A) (A) (A)
                 (A) (A) (A) (A) (A) (A) (A) (A) (A) (A) (A) (A)
                 (A) (A) (A) (A) (A) (A) (A) (A) (A) (A) (A) (A)
                 (A) (A) (A) (A) (A) (A) (A) (A) (A) (A) (A) (A)
                 (A) (A) (A) (A) (A) (A) (A) (A) (A) (A) (A) (A)
                 (A) (A) (A) (A) (A) (A) (A) (A) (A) (A) (A) (A)
                 (A) (A) (A) (A) (A) (A) (A) (A) (A) (A) (A) (A)
                 (A) (A) (A) (A) (A) (A) (A) (A) (A) (A) (A) (A)
                 (A) (A) (A) (A) (A) (A) (A) (A) (A) (A) (A) (A)
                 (A) (A) (A) (A) (A) (A) (A) (A) (A) (A) (A) (A)
                 (A) (A) (A) (A) (A) (A) (A) (A) (A) (A) (A) (A)
                 (A) (A) (A) (A) (A) (A) (A) (A) (A) (A) (A) (A)
                 (A) (A) (A) (A) (A) (A) (A) (A) (A) (A) (A) (A)
                 (A) (A) (A) (A) (A) (A) (A) (A) (A) (A) (A) (A)
                 (A) (A) (A) (A) (A) (A) (A) (A) (A) (A) (A) (A)
                 (A) (A) (A) (A) (A) (A) (A) (A) (A) (A) (A) (A)
                 (A) (A) (A) (A) (A) (A) (A) (A) (A) (A) (A) (A)
                 (A) (A) (A) (A) (A) (A) (A) (A) (A) (A) (A) (A)
                 (A) (A) (A) (A) (A) (A) (A) (A) (A) (A) (A) (A)
                 (A) (A) (A) (A) (A) (A) (A) (A) (A) (A) (A) (A)
                 (A) (A) (A) (A) (A) (A) (A) (A) (A) (A) (A) (A)
                 (A) (A) (A) (A) (A) (A) (A) (A) (A) (A) (A) (A)
                 (A) (A) (A) (A) (A) (A) (A) (A) (A) (A) (A) (A)
                 (A) (A) (A) (A) (A) (A) (A) (A) (A) (A) (A) (A)
                 (A) (A) (A) (A) (A) (A) (A) (A) (A) (A) (A) (A)
                 (A)
    48 initial guesses have been made.
 Convergence on wavefunction:    0.001000000000000
 Iteration     1 Dimension    48 NMult     0 NNew     48
 CISAX will form    48 AO SS matrices at one time.
 New state      1 was old state      2
 New state      2 was old state      1
 New state      3 was old state      4
 New state      4 was old state      6
 New state      6 was old state      3
 New state      7 was old state     12
 New state      9 was old state      7
 New state     10 was old state     14
 New state     12 was old state     18
 New state     13 was old state     24
 New state     14 was old state     16
 New state     16 was old state     28
 New state     17 was old state      9
 New state     18 was old state     10
 New state     19 was old state     32
 New state     20 was old state     17
 New state     21 was old state     20
 New state     22 was old state     19
 New state     23 was old state     22
 New state     24 was old state     21
 Vector  12 SDiff=1.60D+00 TDiff=4.60D+00 assumed to be singlet.
 Vector  24 SDiff=1.68D+00 TDiff=4.24D+00 assumed to be singlet.
 Iteration     2 Dimension    72 NMult    48 NNew     24
 New state      8 was old state     10
 New state      9 was old state      8
 New state     10 was old state      9
 New state     12 was old state     15
 Iteration     3 Dimension    96 NMult    72 NNew     24
 Iteration     4 Dimension   120 NMult    96 NNew     24
 Iteration     5 Dimension   136 NMult   120 NNew     16
 Iteration     6 Dimension   142 NMult   136 NNew      6
 Iteration     7 Dimension   148 NMult   142 NNew      6
 ***********************************************************************
 Excited states from <AA,BB:AA,BB> singles matrix:
 ***********************************************************************
 
 Ground to excited state transition densities written to RWF  633
 Ground to excited state transition electric dipole moments (Au):
       state          X           Y           Z        Dip. S.      Osc.
         1        -0.0000     -0.0000      0.0000      0.0000      0.0000
         2        -2.4937     -0.3048     -0.0111      6.3118      0.4110
         3        -0.0000      0.0000      0.0000      0.0000      0.0000
         4        -0.0000      0.0000      0.0000      0.0000      0.0000
         5         0.0025      0.0012      0.0111      0.0001      0.0000
         6         0.3984     -0.3257      0.0166      0.2650      0.0242
         7        -0.0000      0.0000     -0.0000      0.0000      0.0000
         8         0.0000     -0.0000     -0.0000      0.0000      0.0000
         9         0.0000      0.0000      0.0000      0.0000      0.0000
        10         0.1155     -0.0123      0.3266      0.1202      0.0127
        11        -0.0168      0.0126      0.0223      0.0009      0.0001
        12        -0.3611     -0.1381     -0.1490      0.1717      0.0210
 Ground to excited state transition velocity dipole moments (Au):
       state          X           Y           Z        Dip. S.      Osc.
         1         0.0000      0.0000     -0.0000      0.0000      0.0000
         2         0.2403      0.0333      0.0012      0.0589      0.4018
         3         0.0000     -0.0000      0.0000      0.0000      0.0000
         4         0.0000      0.0000     -0.0000      0.0000      0.0000
         5        -0.0004     -0.0000     -0.0019      0.0000      0.0000
         6        -0.0500      0.0438     -0.0026      0.0044      0.0215
         7        -0.0000     -0.0000     -0.0000      0.0000      0.0000
         8         0.0000      0.0000      0.0000      0.0000      0.0000
         9        -0.0000     -0.0000     -0.0000      0.0000      0.0000
        10        -0.0182      0.0019     -0.0517      0.0030      0.0127
        11         0.0025     -0.0019     -0.0048      0.0000      0.0001
        12         0.0687      0.0243      0.0250      0.0059      0.0216
 Ground to excited state transition magnetic dipole moments (Au):
       state          X           Y           Z
         1         0.0000     -0.0000      0.0000
         2        -0.0203     -0.0348     -0.3457
         3        -0.0000      0.0000      0.0000
         4        -0.0000      0.0000      0.0000
         5        -0.1485      0.4664      0.0169
         6         0.0062      0.0266     -0.6341
         7        -0.0000      0.0000      0.0000
         8         0.0000     -0.0000      0.0000
         9         0.0000      0.0000      0.0000
        10         0.1591      0.2290     -0.0119
        11         0.0767     -0.3465     -0.0109
        12         0.0293      0.1812      0.1017
 Ground to excited state transition velocity quadrupole moments (Au):
       state          XX          YY          ZZ          XY          XZ          YZ
         1        -0.0000      0.0000     -0.0000      0.0000      0.0000      0.0000
         2        -0.3606      0.0521      0.0128     -0.1560      0.0294     -0.0051
         3         0.0000      0.0000     -0.0000      0.0000     -0.0000     -0.0000
         4        -0.0000     -0.0000     -0.0000      0.0000     -0.0000     -0.0000
         5         0.0022      0.0017     -0.0012     -0.0011      0.0038     -0.0066
         6        -0.5869     -0.0145     -0.0009      0.0961     -0.0142      0.0003
         7         0.0000      0.0000      0.0000     -0.0000     -0.0000     -0.0000
         8        -0.0000      0.0000     -0.0000      0.0000      0.0000      0.0000
         9         0.0000     -0.0000     -0.0000     -0.0000     -0.0000      0.0000
        10        -0.0546      0.0137     -0.1008      0.0036     -0.2876      0.1444
        11         0.0240     -0.0065     -0.0009     -0.0032      0.0142     -0.0001
        12        -0.0452      0.0036      0.0302     -0.0239     -0.2103      0.1555
 <0|del|b> * <b|rxdel|0> + <0|del|b> * <b|delr+rdel|0>
 Rotatory Strengths (R) in cgs (10**-40 erg-esu-cm/Gauss)
       state          XX          YY          ZZ    R(velocity)    E-M Angle
         1        -0.0000      0.0000     -0.0000     -0.0000       90.00
         2        -9.9123    -22.9747    -13.8678    -15.5849       94.39
         3        -0.0000     -0.0000      0.0000     -0.0000       90.00
         4        -0.0000      0.0000      0.0000     -0.0000       90.00
         5        -0.1193      0.0799      0.1101      0.0236       90.00
         6         8.2021      4.0494      0.6374      4.2963       86.61
         7        -0.0000     -0.0000      0.0000     -0.0000       90.00
         8        -0.0000      0.0000     -0.0000     -0.0000       90.00
         9        -0.0000     -0.0000      0.0000     -0.0000       90.00
        10         3.1862    -10.5390     -0.8528     -2.7352       96.88
        11         1.6834      0.5023      1.8323      1.3393       63.62
        12        22.1096     30.5494    -18.0901     11.5230       56.34
 1/2[<0|r|b>*<b|rxdel|0> + (<0|rxdel|b>*<b|r|0>)*]
 Rotatory Strengths (R) in cgs (10**-40 erg-esu-cm/Gauss)
       state          XX          YY          ZZ     R(length)
         1         0.0000     -0.0000     -0.0000     -0.0000
         2       -35.8476     -7.4930     -2.7140    -15.3516
         3        -0.0000     -0.0000     -0.0000     -0.0000
         4        -0.0000     -0.0000     -0.0000     -0.0000
         5         0.2677     -0.4025     -0.1327     -0.0892
         6        -1.7402      6.1200      7.4646      3.9481
         7        -0.0000     -0.0000      0.0000     -0.0000
         8        -0.0000     -0.0000      0.0000     -0.0000
         9        -0.0000     -0.0000     -0.0000     -0.0000
        10       -12.9953      1.9939      2.7374     -2.7547
        11         0.9115      3.0758      0.1724      1.3866
        12         7.4822     17.6886     10.7189     11.9632
  1/2[<0|del|b>*<b|r|0> + (<0|r|b>*<b|del|0>)*] (Au)
       state          X           Y           Z        Dip. S.   Osc.(frdel)
         1        -0.0000     -0.0000     -0.0000      0.0000      0.0000
         2        -0.5994     -0.0102     -0.0000      0.6095      0.4064
         3        -0.0000     -0.0000      0.0000      0.0000      0.0000
         4        -0.0000      0.0000     -0.0000      0.0000      0.0000
         5        -0.0000     -0.0000     -0.0000      0.0000      0.0000
         6        -0.0199     -0.0143     -0.0000      0.0342      0.0228
         7         0.0000     -0.0000      0.0000      0.0000      0.0000
         8         0.0000     -0.0000     -0.0000      0.0000      0.0000
         9        -0.0000     -0.0000     -0.0000      0.0000      0.0000
        10        -0.0021     -0.0000     -0.0169      0.0190      0.0127
        11        -0.0000     -0.0000     -0.0001      0.0002      0.0001
        12        -0.0248     -0.0034     -0.0037      0.0319      0.0213

 Excitation energies and oscillator strengths:
 
 Excited State   1:      Triplet-A      1.0227 eV 1212.31 nm  f=0.0000  <S**2>=2.000
      54 -> 55         0.72701
      54 <- 55         0.19303
 This state for optimization and/or second-order correction.
 Total Energy, E(TD-HF/TD-DFT) =  -742.279293168    
 Copying the excited state density for this state as the 1-particle RhoCI density.
 
 Excited State   2:      Singlet-A      2.6582 eV  466.43 nm  f=0.4110  <S**2>=0.000
      54 -> 55         0.71235
      54 <- 55        -0.14285
 
 Excited State   3:      Triplet-A      3.1158 eV  397.92 nm  f=0.0000  <S**2>=2.000
      53 -> 55         0.68954
 
 Excited State   4:      Triplet-A      3.4054 eV  364.08 nm  f=0.0000  <S**2>=2.000
      52 -> 55         0.69153
 
 Excited State   5:      Singlet-A      3.6925 eV  335.78 nm  f=0.0000  <S**2>=0.000
      52 -> 55         0.70124
 
 Excited State   6:      Singlet-A      3.7339 eV  332.05 nm  f=0.0242  <S**2>=0.000
      50 -> 55        -0.10696
      53 -> 55         0.69209
 
 Excited State   7:      Triplet-A      3.9791 eV  311.58 nm  f=0.0000  <S**2>=2.000
      50 -> 55         0.25986
      51 -> 55         0.63103
 
 Excited State   8:      Triplet-A      4.0494 eV  306.18 nm  f=0.0000  <S**2>=2.000
      49 -> 55        -0.16649
      50 -> 55         0.41273
      51 -> 55        -0.13030
      53 -> 62        -0.13208
      54 -> 58        -0.13293
      54 -> 59        -0.26473
      54 -> 60        -0.27207
      54 -> 61        -0.12434
      54 -> 62        -0.19469
 
 Excited State   9:      Triplet-A      4.2531 eV  291.52 nm  f=0.0000  <S**2>=2.000
      54 -> 56         0.65346
      54 -> 58        -0.11478
      54 -> 62         0.11877
 
 Excited State  10:      Singlet-A      4.3000 eV  288.34 nm  f=0.0127  <S**2>=0.000
      54 -> 56         0.69800
 
 Excited State  11:      Singlet-A      4.3508 eV  284.97 nm  f=0.0001  <S**2>=0.000
      50 -> 55         0.30930
      51 -> 55         0.62517
 
 Excited State  12:      Singlet-A      4.9853 eV  248.70 nm  f=0.0210  <S**2>=0.000
      50 -> 55         0.14370
      54 -> 57         0.45545
      54 -> 58         0.49166
 SavETr:  write IOETrn=   770 NScale= 10 NData=  16 NLR=1 NState=   12 LETran=     226.

 **********************************************************************

            Population analysis using the SCF Density.

 **********************************************************************

 Orbital symmetries:
       Occupied  (A) (A) (A) (A) (A) (A) (A) (A) (A) (A) (A) (A)
                 (A) (A) (A) (A) (A) (A) (A) (A) (A) (A) (A) (A)
                 (A) (A) (A) (A) (A) (A) (A) (A) (A) (A) (A) (A)
                 (A) (A) (A) (A) (A) (A) (A) (A) (A) (A) (A) (A)
                 (A) (A) (A) (A) (A) (A)
       Virtual   (A) (A) (A) (A) (A) (A) (A) (A) (A) (A) (A) (A)
                 (A) (A) (A) (A) (A) (A) (A) (A) (A) (A) (A) (A)
                 (A) (A) (A) (A) (A) (A) (A) (A) (A) (A) (A) (A)
                 (A) (A) (A) (A) (A) (A) (A) (A) (A) (A) (A) (A)
                 (A) (A) (A) (A) (A) (A) (A) (A) (A) (A) (A) (A)
                 (A) (A) (A) (A) (A) (A) (A) (A) (A) (A) (A) (A)
                 (A) (A) (A) (A) (A) (A) (A) (A) (A) (A) (A) (A)
                 (A) (A) (A) (A) (A) (A) (A) (A) (A) (A) (A) (A)
                 (A) (A) (A) (A) (A) (A) (A) (A) (A) (A) (A) (A)
                 (A) (A) (A) (A) (A) (A) (A) (A) (A) (A) (A) (A)
                 (A) (A) (A) (A) (A) (A) (A) (A) (A) (A) (A) (A)
                 (A) (A) (A) (A) (A) (A) (A) (A) (A) (A) (A) (A)
                 (A) (A) (A) (A) (A) (A) (A) (A) (A) (A) (A) (A)
                 (A) (A) (A) (A) (A) (A) (A) (A) (A) (A) (A) (A)
                 (A) (A) (A) (A) (A) (A) (A) (A) (A) (A) (A) (A)
                 (A) (A) (A) (A) (A) (A) (A) (A) (A) (A) (A) (A)
                 (A) (A) (A) (A) (A) (A) (A) (A) (A) (A) (A) (A)
                 (A) (A) (A) (A) (A) (A) (A) (A) (A) (A) (A) (A)
                 (A) (A) (A) (A) (A) (A) (A) (A) (A) (A) (A) (A)
                 (A) (A) (A) (A) (A) (A) (A) (A) (A) (A) (A) (A)
                 (A) (A) (A) (A) (A) (A) (A) (A) (A) (A) (A) (A)
                 (A) (A) (A) (A) (A) (A) (A) (A) (A) (A) (A) (A)
                 (A) (A) (A) (A) (A) (A) (A) (A) (A) (A) (A) (A)
                 (A) (A) (A) (A) (A) (A) (A) (A) (A) (A) (A) (A)
                 (A) (A) (A) (A) (A) (A) (A) (A) (A) (A) (A) (A)
                 (A) (A) (A) (A) (A) (A) (A) (A) (A) (A) (A) (A)
                 (A) (A) (A) (A) (A) (A) (A) (A) (A) (A) (A) (A)
                 (A) (A) (A) (A) (A) (A) (A) (A) (A) (A) (A) (A)
                 (A)
 The electronic state is 1-A.
 Alpha  occ. eigenvalues --  -19.20429 -19.17823 -19.14532 -19.11630 -14.39228
 Alpha  occ. eigenvalues --  -10.32913 -10.30836 -10.30070 -10.23952 -10.23805
 Alpha  occ. eigenvalues --  -10.23510 -10.22217 -10.20330 -10.18518 -10.18139
 Alpha  occ. eigenvalues --   -1.15051  -1.11774  -1.07501  -1.03890  -0.99515
 Alpha  occ. eigenvalues --   -0.85939  -0.80855  -0.77108  -0.76477  -0.72900
 Alpha  occ. eigenvalues --   -0.67844  -0.64784  -0.62123  -0.57228  -0.56891
 Alpha  occ. eigenvalues --   -0.54494  -0.52276  -0.51970  -0.49063  -0.48857
 Alpha  occ. eigenvalues --   -0.48643  -0.47007  -0.46089  -0.45408  -0.44282
 Alpha  occ. eigenvalues --   -0.44099  -0.43865  -0.43062  -0.41378  -0.40546
 Alpha  occ. eigenvalues --   -0.39923  -0.38429  -0.36347  -0.34735  -0.31562
 Alpha  occ. eigenvalues --   -0.31396  -0.28440  -0.27182  -0.20499
 Alpha virt. eigenvalues --   -0.10838  -0.02630  -0.00070   0.00319   0.00618
 Alpha virt. eigenvalues --    0.01197   0.01432   0.01891   0.02261   0.02739
 Alpha virt. eigenvalues --    0.03176   0.03838   0.04065   0.04533   0.04994
 Alpha virt. eigenvalues --    0.06285   0.06433   0.06940   0.07394   0.07888
 Alpha virt. eigenvalues --    0.08700   0.09033   0.09563   0.10179   0.10306
 Alpha virt. eigenvalues --    0.10744   0.10989   0.11715   0.11789   0.11978
 Alpha virt. eigenvalues --    0.12352   0.12749   0.12856   0.13380   0.13945
 Alpha virt. eigenvalues --    0.14056   0.14180   0.14638   0.15327   0.15681
 Alpha virt. eigenvalues --    0.16077   0.16868   0.17111   0.17281   0.17472
 Alpha virt. eigenvalues --    0.17794   0.18441   0.19082   0.19168   0.19527
 Alpha virt. eigenvalues --    0.19764   0.20784   0.21758   0.22064   0.22492
 Alpha virt. eigenvalues --    0.23034   0.23625   0.24251   0.24650   0.25472
 Alpha virt. eigenvalues --    0.25831   0.25977   0.27106   0.27253   0.27942
 Alpha virt. eigenvalues --    0.28349   0.28911   0.29104   0.29467   0.30261
 Alpha virt. eigenvalues --    0.30433   0.30975   0.31301   0.31476   0.31739
 Alpha virt. eigenvalues --    0.32348   0.32840   0.34111   0.34573   0.35335
 Alpha virt. eigenvalues --    0.35707   0.35986   0.37182   0.37632   0.39103
 Alpha virt. eigenvalues --    0.39941   0.40518   0.41601   0.41656   0.42470
 Alpha virt. eigenvalues --    0.43320   0.43642   0.44839   0.46381   0.48169
 Alpha virt. eigenvalues --    0.49560   0.50716   0.51037   0.52017   0.54376
 Alpha virt. eigenvalues --    0.54925   0.55822   0.56208   0.57151   0.57509
 Alpha virt. eigenvalues --    0.57607   0.59532   0.59883   0.60331   0.61929
 Alpha virt. eigenvalues --    0.62304   0.62981   0.64010   0.64935   0.65414
 Alpha virt. eigenvalues --    0.66099   0.66627   0.67191   0.68710   0.69971
 Alpha virt. eigenvalues --    0.71358   0.72082   0.72818   0.74271   0.75430
 Alpha virt. eigenvalues --    0.79124   0.80027   0.80541   0.82609   0.83291
 Alpha virt. eigenvalues --    0.84153   0.85853   0.86545   0.87406   0.87586
 Alpha virt. eigenvalues --    0.89059   0.89722   0.91618   0.92970   0.95438
 Alpha virt. eigenvalues --    0.96180   0.98420   0.99520   1.01179   1.02222
 Alpha virt. eigenvalues --    1.03480   1.04188   1.04799   1.05471   1.07225
 Alpha virt. eigenvalues --    1.08078   1.09315   1.09771   1.11353   1.12281
 Alpha virt. eigenvalues --    1.14174   1.15937   1.17395   1.19955   1.20686
 Alpha virt. eigenvalues --    1.21788   1.23334   1.23727   1.25712   1.26997
 Alpha virt. eigenvalues --    1.27147   1.28024   1.28831   1.29599   1.32845
 Alpha virt. eigenvalues --    1.35201   1.36194   1.38230   1.39042   1.40500
 Alpha virt. eigenvalues --    1.43256   1.44848   1.46579   1.49327   1.49899
 Alpha virt. eigenvalues --    1.51702   1.52449   1.54241   1.54631   1.55064
 Alpha virt. eigenvalues --    1.57112   1.58219   1.59711   1.60486   1.62829
 Alpha virt. eigenvalues --    1.64561   1.66435   1.67715   1.68773   1.71166
 Alpha virt. eigenvalues --    1.71799   1.73682   1.73868   1.75486   1.76741
 Alpha virt. eigenvalues --    1.77989   1.79714   1.80289   1.80797   1.82378
 Alpha virt. eigenvalues --    1.82499   1.85129   1.86091   1.87700   1.90223
 Alpha virt. eigenvalues --    1.93194   1.94821   1.97900   1.99805   2.01984
 Alpha virt. eigenvalues --    2.03051   2.03537   2.04307   2.05330   2.06914
 Alpha virt. eigenvalues --    2.07576   2.08863   2.13863   2.15504   2.17427
 Alpha virt. eigenvalues --    2.21067   2.23789   2.29192   2.33197   2.36456
 Alpha virt. eigenvalues --    2.38017   2.39340   2.41442   2.42527   2.45367
 Alpha virt. eigenvalues --    2.47527   2.49225   2.49916   2.52734   2.53984
 Alpha virt. eigenvalues --    2.55011   2.57655   2.60099   2.60178   2.62108
 Alpha virt. eigenvalues --    2.63585   2.64795   2.67421   2.69853   2.70654
 Alpha virt. eigenvalues --    2.71581   2.74475   2.77411   2.79392   2.81235
 Alpha virt. eigenvalues --    2.81895   2.82595   2.84364   2.86612   2.87591
 Alpha virt. eigenvalues --    2.87654   2.89641   2.90559   2.94491   2.94984
 Alpha virt. eigenvalues --    2.96528   2.97636   3.00256   3.00465   3.02998
 Alpha virt. eigenvalues --    3.04583   3.08915   3.12381   3.12778   3.14014
 Alpha virt. eigenvalues --    3.14825   3.15743   3.17749   3.26043   3.29269
 Alpha virt. eigenvalues --    3.32209   3.36847   3.38141   3.38762   3.44163
 Alpha virt. eigenvalues --    3.50189   3.51185   3.54863   3.60196   3.62066
 Alpha virt. eigenvalues --    3.65072   3.68656   3.72418   3.74185   3.76493
 Alpha virt. eigenvalues --    3.77937   3.81139   3.83205   3.94139   3.99275
 Alpha virt. eigenvalues --    3.99359   4.06527   4.07806   4.09565   4.10816
 Alpha virt. eigenvalues --    4.34505   4.38159   4.55222   4.83835   4.95815
 Alpha virt. eigenvalues --    4.97309   5.02537   5.03431   5.05164   5.19519
 Alpha virt. eigenvalues --    5.21231   5.40997   5.44978   5.67826   5.69907
 Alpha virt. eigenvalues --    5.87693   5.89079  23.62737  23.77231  23.85536
 Alpha virt. eigenvalues --   23.88232  23.88556  23.89889  23.93320  24.09943
 Alpha virt. eigenvalues --   24.16141  24.22577  35.57220  49.88747  49.91020
 Alpha virt. eigenvalues --   50.05335  50.06729
          Condensed to atoms (all electrons):
               1          2          3          4          5          6
     1  C    8.410309  -1.859382  -0.008605   0.950450  -0.824718   0.125399
     2  C   -1.859382  12.467412   0.414425  -2.783237  -0.127832  -0.061536
     3  H   -0.008605   0.414425   0.468750  -0.069970  -0.015378  -0.001494
     4  C    0.950450  -2.783237  -0.069970   7.793624  -0.516612   0.092569
     5  C   -0.824718  -0.127832  -0.015378  -0.516612   7.121257   0.203257
     6  O    0.125399  -0.061536  -0.001494   0.092569   0.203257   8.052208
     7  O   -0.236011   0.361225   0.005880  -0.259332   0.272825  -0.056244
     8  C   -0.413776  -2.893795  -0.006268   1.008617   0.080974  -0.184297
     9  C   -1.618627  -0.923156  -0.005007   0.000207   0.549109   0.029534
    10  H    0.002342   0.018505  -0.000755  -0.001657   0.005461  -0.013611
    11  C    2.240509   1.985604   0.041178  -0.566944  -0.758105   0.142782
    12  C   -0.515856  -0.591132  -0.005840   0.195652   0.043019  -0.019151
    13  O   -0.002551  -0.109138  -0.013888   0.042157  -0.001707   0.000337
    14  O   -0.086223  -0.066556  -0.002825   0.011636   0.021563   0.000015
    15  H   -0.020944  -0.032362  -0.005163   0.447578  -0.005398   0.000399
    16  N   -0.022448  -0.002693   0.000068  -0.001729   0.012272  -0.000046
    17  C   -0.017335  -0.009141   0.000073  -0.002403   0.011878   0.000996
    18  H   -0.000633  -0.000076   0.000021  -0.000167   0.000405  -0.000017
    19  H    0.001876   0.000393  -0.000016   0.000240  -0.000686   0.000239
    20  H    0.001123  -0.002433  -0.000022   0.000453  -0.000569  -0.000230
    21  C    0.078336   0.028567   0.000867  -0.004617  -0.016567   0.000302
    22  H    0.000082  -0.000084  -0.000008   0.000085   0.000118  -0.000026
    23  H   -0.002416   0.000217  -0.000044  -0.000015  -0.000001   0.000067
    24  H   -0.000757   0.000105   0.000020  -0.000109   0.000015   0.000014
               7          8          9         10         11         12
     1  C   -0.236011  -0.413776  -1.618627   0.002342   2.240509  -0.515856
     2  C    0.361225  -2.893795  -0.923156   0.018505   1.985604  -0.591132
     3  H    0.005880  -0.006268  -0.005007  -0.000755   0.041178  -0.005840
     4  C   -0.259332   1.008617   0.000207  -0.001657  -0.566944   0.195652
     5  C    0.272825   0.080974   0.549109   0.005461  -0.758105   0.043019
     6  O   -0.056244  -0.184297   0.029534  -0.013611   0.142782  -0.019151
     7  O    8.112908  -0.182805   0.072498   0.001862   0.080350  -0.027010
     8  C   -0.182805  12.553390   4.259835  -0.053261  -8.643662  -0.417616
     9  C    0.072498   4.259835  12.895597   0.362108  -9.703717   0.672612
    10  H    0.001862  -0.053261   0.362108   0.484570  -0.032920   0.037606
    11  C    0.080350  -8.643662  -9.703717  -0.032920  23.081482  -1.336161
    12  C   -0.027010  -0.417616   0.672612   0.037606  -1.336161   7.482342
    13  O   -0.000718   0.058232   0.017894  -0.000737  -0.005004   0.319555
    14  O   -0.000117   0.130061   0.545222   0.005643  -0.682471   0.294158
    15  H   -0.075621  -0.006941  -0.007174   0.000093  -0.000972  -0.001552
    16  N   -0.000027  -0.038097  -0.287749  -0.017779   0.253730   0.001689
    17  C    0.000296  -0.204317  -0.188481  -0.006238   0.108587  -0.006144
    18  H    0.000004  -0.003569   0.034130   0.000824  -0.014523   0.005226
    19  H   -0.000019   0.015793  -0.003975  -0.002214  -0.005135  -0.008396
    20  H   -0.000131  -0.010651  -0.033266  -0.000991   0.056050  -0.007444
    21  C    0.000221  -0.325176  -0.803608  -0.002207   0.763837  -0.026907
    22  H   -0.000003   0.015471   0.035861  -0.001027  -0.004219  -0.004506
    23  H    0.000011  -0.032447  -0.004961   0.001152   0.020563  -0.000755
    24  H    0.000006  -0.006807   0.014461   0.000963  -0.029024   0.009716
              13         14         15         16         17         18
     1  C   -0.002551  -0.086223  -0.020944  -0.022448  -0.017335  -0.000633
     2  C   -0.109138  -0.066556  -0.032362  -0.002693  -0.009141  -0.000076
     3  H   -0.013888  -0.002825  -0.005163   0.000068   0.000073   0.000021
     4  C    0.042157   0.011636   0.447578  -0.001729  -0.002403  -0.000167
     5  C   -0.001707   0.021563  -0.005398   0.012272   0.011878   0.000405
     6  O    0.000337   0.000015   0.000399  -0.000046   0.000996  -0.000017
     7  O   -0.000718  -0.000117  -0.075621  -0.000027   0.000296   0.000004
     8  C    0.058232   0.130061  -0.006941  -0.038097  -0.204317  -0.003569
     9  C    0.017894   0.545222  -0.007174  -0.287749  -0.188481   0.034130
    10  H   -0.000737   0.005643   0.000093  -0.017779  -0.006238   0.000824
    11  C   -0.005004  -0.682471  -0.000972   0.253730   0.108587  -0.014523
    12  C    0.319555   0.294158  -0.001552   0.001689  -0.006144   0.005226
    13  O    8.000045  -0.040499   0.000853   0.003729   0.000991  -0.000055
    14  O   -0.040499   8.225007  -0.000249  -0.106295   0.000583  -0.000858
    15  H    0.000853  -0.000249   0.498729   0.000002  -0.000023  -0.000003
    16  N    0.003729  -0.106295   0.000002   6.959802   0.297893  -0.045311
    17  C    0.000991   0.000583  -0.000023   0.297893   5.277030   0.394921
    18  H   -0.000055  -0.000858  -0.000003  -0.045311   0.394921   0.549345
    19  H    0.000170   0.002220   0.000008  -0.056807   0.407472  -0.040368
    20  H   -0.000051  -0.000965  -0.000010  -0.045826   0.394912  -0.030984
    21  C    0.002000  -0.111581   0.000003   0.336873  -0.092897  -0.006482
    22  H    0.000095   0.004916   0.000001  -0.062549  -0.029251   0.003567
    23  H   -0.001753   0.005555   0.000001  -0.043920   0.009939   0.002571
    24  H    0.000044  -0.005839  -0.000001  -0.059468   0.021563  -0.002711
              19         20         21         22         23         24
     1  C    0.001876   0.001123   0.078336   0.000082  -0.002416  -0.000757
     2  C    0.000393  -0.002433   0.028567  -0.000084   0.000217   0.000105
     3  H   -0.000016  -0.000022   0.000867  -0.000008  -0.000044   0.000020
     4  C    0.000240   0.000453  -0.004617   0.000085  -0.000015  -0.000109
     5  C   -0.000686  -0.000569  -0.016567   0.000118  -0.000001   0.000015
     6  O    0.000239  -0.000230   0.000302  -0.000026   0.000067   0.000014
     7  O   -0.000019  -0.000131   0.000221  -0.000003   0.000011   0.000006
     8  C    0.015793  -0.010651  -0.325176   0.015471  -0.032447  -0.006807
     9  C   -0.003975  -0.033266  -0.803608   0.035861  -0.004961   0.014461
    10  H   -0.002214  -0.000991  -0.002207  -0.001027   0.001152   0.000963
    11  C   -0.005135   0.056050   0.763837  -0.004219   0.020563  -0.029024
    12  C   -0.008396  -0.007444  -0.026907  -0.004506  -0.000755   0.009716
    13  O    0.000170  -0.000051   0.002000   0.000095  -0.001753   0.000044
    14  O    0.002220  -0.000965  -0.111581   0.004916   0.005555  -0.005839
    15  H    0.000008  -0.000010   0.000003   0.000001   0.000001  -0.000001
    16  N   -0.056807  -0.045826   0.336873  -0.062549  -0.043920  -0.059468
    17  C    0.407472   0.394912  -0.092897  -0.029251   0.009939   0.021563
    18  H   -0.040368  -0.030984  -0.006482   0.003567   0.002571  -0.002711
    19  H    0.526542  -0.031526  -0.012107   0.001287  -0.001688   0.007565
    20  H   -0.031526   0.534277   0.011059   0.000403  -0.001966  -0.001104
    21  C   -0.012107   0.011059   5.343827   0.390041   0.419405   0.382114
    22  H    0.001287   0.000403   0.390041   0.586502  -0.022082  -0.071293
    23  H   -0.001688  -0.001966   0.419405  -0.022082   0.479752  -0.021939
    24  H    0.007565  -0.001104   0.382114  -0.071293  -0.021939   0.589244
 Mulliken charges:
               1
     1  C   -0.180142
     2  C    0.186102
     3  H    0.204004
     4  C   -0.336476
     5  C   -0.054579
     6  O   -0.311464
     7  O   -0.070045
     8  C    1.301113
     9  C    0.090652
    10  H    0.212268
    11  C   -0.991815
    12  C   -0.093104
    13  O   -0.270000
    14  O   -0.142102
    15  H    0.208746
    16  N   -0.075313
    17  C   -0.370903
    18  H    0.154743
    19  H    0.199133
    20  H    0.169891
    21  C   -0.355305
    22  H    0.156618
    23  H    0.194755
    24  H    0.173223
 Sum of Mulliken charges =  -0.00000
 Mulliken charges with hydrogens summed into heavy atoms:
               1
     1  C   -0.180142
     2  C    0.390106
     4  C   -0.127730
     5  C   -0.054579
     6  O   -0.311464
     7  O   -0.070045
     8  C    1.301113
     9  C    0.302920
    11  C   -0.991815
    12  C   -0.093104
    13  O   -0.270000
    14  O   -0.142102
    16  N   -0.075313
    17  C    0.152864
    21  C    0.169291
 Electronic spatial extent (au):  <R**2>=           3674.6961
 Charge=             -0.0000 electrons
 Dipole moment (field-independent basis, Debye):
    X=              5.8432    Y=             -0.1757    Z=              0.1725  Tot=              5.8484
 Quadrupole moment (field-independent basis, Debye-Ang):
   XX=            -64.5001   YY=            -99.2832   ZZ=            -87.1076
   XY=            -15.8588   XZ=              0.5456   YZ=              0.3915
 Traceless Quadrupole moment (field-independent basis, Debye-Ang):
   XX=             19.1302   YY=            -15.6529   ZZ=             -3.4773
   XY=            -15.8588   XZ=              0.5456   YZ=              0.3915
 Octapole moment (field-independent basis, Debye-Ang**2):
  XXX=             66.4732  YYY=            -11.1786  ZZZ=              0.8062  XYY=             29.1095
  XXY=             23.5033  XXZ=              1.1465  XZZ=              4.7147  YZZ=             -0.5453
  YYZ=             -0.6619  XYZ=              0.5866
 Hexadecapole moment (field-independent basis, Debye-Ang**3):
 XXXX=          -3145.0909 YYYY=          -1148.1838 ZZZZ=           -106.2177 XXXY=           -154.4516
 XXXZ=             -7.4159 YYYX=            -61.6391 YYYZ=              2.6697 ZZZX=              3.6696
 ZZZY=             -1.6143 XXYY=           -785.5422 XXZZ=           -641.7387 YYZZ=           -187.5019
 XXYZ=              5.7818 YYXZ=             -2.2678 ZZXY=             14.9711
 N-N= 9.601648332914D+02 E-N=-3.655367884211D+03  KE= 7.395293250918D+02
 Unable to Open any file for archive entry.
 1\1\GINC-N2\SP\RB3LYP TD-FC\6-311++G(d,p)\C10H9N1O4\HPCMGAC13\20-Sep-2
 025\0\\# td=(50-50,nstates=6) b3lyp/6-311++g(d,p) geom=connectivity\\T
 itle Card Required\\0,1\C,0,-1.74442,0.137511,0.000103\C,0,-2.7937,1.1
 24753,0.012371\H,0,-2.672024,2.194969,0.008596\C,0,-3.958193,0.446681,
 0.027866\C,0,-2.416984,-1.175109,0.011382\O,0,-1.980471,-2.297432,0.00
 8985\O,0,-3.790667,-0.921144,0.027962\C,0,-0.376921,0.267252,-0.018583
 \C,0,0.648464,-0.711561,-0.02085\H,0,0.497908,-1.775944,0.002848\C,0,1
 .851945,-0.03796,-0.041079\C,0,0.305562,1.588277,-0.029096\O,0,-0.0986
 61,2.710335,-0.029527\O,0,1.693589,1.324679,-0.039058\H,0,-4.982407,0.
 783064,0.03972\N,0,3.117145,-0.484573,-0.086085\C,0,3.356947,-1.921954
 ,-0.03554\H,0,4.343276,-2.12644,-0.452778\H,0,3.32103,-2.30278,0.99197
 7\H,0,2.614015,-2.448514,-0.634501\C,0,4.260609,0.39612,0.143907\H,0,5
 .059428,0.134978,-0.553557\H,0,3.971343,1.430536,-0.017336\H,0,4.63722
 8,0.286581,1.167841\\Version=ES64L-G16RevC.02\State=1-A\HF=-742.316877
 1\RMSD=3.780e-09\PG=C01 [X(C10H9N1O4)]\\@
 The archive entry for this job was punched.


     ON THE SURVIVAL OF THE FITTEST -
 "STRONG REPRESENTATIVES FROM EACH PAST ERA THRIVE TODAY,
 SUCH AS PROGRAMMING IN THE THIRTY YEAR OLD LANGUAGE KNOWN
 AS FORTRAN, AND EVEN IN THE ANCIENT SCRIPT KNOWN AS DIRECT
 MACHINE CODE. SOME PEOPLE MIGHT LOOK ON SUCH RELICS AS LIVING
 FOSSILS; OTHERS WOULD POINT OUT THAT EVEN A VERY OLD SPECIES
 MIGHT STILL BE FILLING A PARTICULAR ECOLOGICAL NICHE."
     -- ALAN KAY, SCI.AM. SEPTEMBER 1984
 Job cpu time:       0 days  1 hours  0 minutes  6.5 seconds.
 Elapsed time:       0 days  0 hours  7 minutes 39.6 seconds.
 File lengths (MBytes):  RWF=   1131 Int=      0 D2E=      0 Chk=     67 Scr=      2
 Normal termination of Gaussian 16 at Sat Sep 20 15:20:28 2025.
