 Entering Gaussian System, Link 0=g16
 Input=cn-sh_E.gjf
 Output=cn-sh_E.log
 Initial command:
 /hpc/softwares/Gaussian/g16/l1.exe "/hpc/home/hpcmgac13/pbs.13459.admin1.x8z/Gau-449410.inp" -scrdir="/hpc/home/hpcmgac13/pbs.13459.admin1.x8z/"
 Default linda workers: n1
 Default is to use  16 SMP processors on each worker.
 Entering Link 1 = /hpc/softwares/Gaussian/g16/l1.exe PID=    449411.
  
 Copyright (c) 1988-2021, Gaussian, Inc.  All Rights Reserved.
  
 This is part of the Gaussian(R) 16 program.  It is based on
 the Gaussian(R) 09 system (copyright 2009, Gaussian, Inc.),
 the Gaussian(R) 03 system (copyright 2003, Gaussian, Inc.),
 the Gaussian(R) 98 system (copyright 1998, Gaussian, Inc.),
 the Gaussian(R) 94 system (copyright 1995, Gaussian, Inc.),
 the Gaussian 92(TM) system (copyright 1992, Gaussian, Inc.),
 the Gaussian 90(TM) system (copyright 1990, Gaussian, Inc.),
 the Gaussian 88(TM) system (copyright 1988, Gaussian, Inc.),
 the Gaussian 86(TM) system (copyright 1986, Carnegie Mellon
 University), and the Gaussian 82(TM) system (copyright 1983,
 Carnegie Mellon University). Gaussian is a federally registered
 trademark of Gaussian, Inc.
  
 This software contains proprietary and confidential information,
 including trade secrets, belonging to Gaussian, Inc.
  
 This software is provided under written license and may be
 used, copied, transmitted, or stored only in accord with that
 written license.
  
 The following legend is applicable only to US Government
 contracts under FAR:
  
                    RESTRICTED RIGHTS LEGEND
  
 Use, reproduction and disclosure by the US Government is
 subject to restrictions as set forth in subparagraphs (a)
 and (c) of the Commercial Computer Software - Restricted
 Rights clause in FAR 52.227-19.
  
 Gaussian, Inc.
 340 Quinnipiac St., Bldg. 40, Wallingford CT 06492
  
  
 ---------------------------------------------------------------
 Warning -- This program may not be used in any manner that
 competes with the business of Gaussian, Inc. or will provide
 assistance to any competitor of Gaussian, Inc.  The licensee
 of this program is prohibited from giving any competitor of
 Gaussian, Inc. access to this program.  By using this program,
 the user acknowledges that Gaussian, Inc. is engaged in the
 business of creating and licensing software in the field of
 computational chemistry and represents and warrants to the
 licensee that it is not a competitor of Gaussian, Inc. and that
 it will not use this program in any manner prohibited above.
 ---------------------------------------------------------------
  

 Cite this work as:
 Gaussian 16, Revision C.02,
 M. J. Frisch, G. W. Trucks, H. B. Schlegel, G. E. Scuseria, 
 M. A. Robb, J. R. Cheeseman, G. Scalmani, V. Barone, 
 G. A. Petersson, H. Nakatsuji, X. Li, M. Caricato, A. V. Marenich, 
 J. Bloino, B. G. Janesko, R. Gomperts, B. Mennucci, H. P. Hratchian, 
 J. V. Ortiz, A. F. Izmaylov, J. L. Sonnenberg, D. Williams-Young, 
 F. Ding, F. Lipparini, F. Egidi, J. Goings, B. Peng, A. Petrone, 
 T. Henderson, D. Ranasinghe, V. G. Zakrzewski, J. Gao, N. Rega, 
 G. Zheng, W. Liang, M. Hada, M. Ehara, K. Toyota, R. Fukuda, 
 J. Hasegawa, M. Ishida, T. Nakajima, Y. Honda, O. Kitao, H. Nakai, 
 T. Vreven, K. Throssell, J. A. Montgomery, Jr., J. E. Peralta, 
 F. Ogliaro, M. J. Bearpark, J. J. Heyd, E. N. Brothers, K. N. Kudin, 
 V. N. Staroverov, T. A. Keith, R. Kobayashi, J. Normand, 
 K. Raghavachari, A. P. Rendell, J. C. Burant, S. S. Iyengar, 
 J. Tomasi, M. Cossi, J. M. Millam, M. Klene, C. Adamo, R. Cammi, 
 J. W. Ochterski, R. L. Martin, K. Morokuma, O. Farkas, 
 J. B. Foresman, and D. J. Fox, Gaussian, Inc., Wallingford CT, 2019.
 
 ******************************************
 Gaussian 16:  ES64L-G16RevC.02  7-Dec-2021
                25-Aug-2025 
 ******************************************
 SetLPE:    new flags="-opt 'Tsnet.Node.lindarsharg: ssh'  -nodelist 'n1' -env GAUSS_MDEF=4294967296 -env GAUSS_EXEDIR="/hpc/softwares/Gaussian/g16/bsd:/hpc/softwares/Gaussian/g16""
 Will use up to    1 processors via Linda.
 ------------------------------------------------------------
 # td=(50-50,nstates=3) b3lyp/6-311++g(d,p) geom=connectivity
 ------------------------------------------------------------
 1/38=1,57=2,172=1/1;
 2/12=2,17=6,18=5,40=1/2;
 3/5=4,6=6,7=1111,11=9,25=1,30=1,74=-5/1,2,3,8;
 4//1;
 5/5=2,38=5/2;
 8/6=1,10=2,108=3/1;
 9/41=3,42=1,48=2,70=2/14;
 6/7=2,8=2,9=2,10=2/1;
 99/5=1,9=1/99;
 -------------------
 Title Card Required
 -------------------
 Symbolic Z-matrix:
 Charge =  0 Multiplicity = 2
 C                     0.49185   0.46009   0.1079 
 C                    -0.56589  -0.42027   0.08991 
 C                    -1.98425  -0.19862  -0.12803 
 C                    -2.59132  -1.41095  -0.00728 
 C                     1.91449   0.25606  -0.06703 
 C                     2.45696   1.48958   0.1542 
 O                     1.65292   2.4857    0.4227 
 C                     0.2979    1.91309   0.41001 
 O                    -0.63159   2.57491   0.70293 
 C                    -0.44878  -1.86462   0.41232 
 O                     0.46377  -2.53478   0.80025 
 O                    -1.74381  -2.40866   0.31908 
 H                    -3.6235   -1.68549  -0.16089 
 C                    -2.66452   0.95653  -0.59109 
 N                    -3.25692   1.85503  -1.01017 
 S                     2.79811  -1.0791   -0.81123 
 H                     2.28338  -2.05678  -0.03337 
 
                          Input orientation:                          
 ---------------------------------------------------------------------
 Center     Atomic      Atomic             Coordinates (Angstroms)
 Number     Number       Type             X           Y           Z
 ---------------------------------------------------------------------
      1          6           0        0.491845    0.460091    0.107897
      2          6           0       -0.565893   -0.420274    0.089906
      3          6           0       -1.984251   -0.198620   -0.128034
      4          6           0       -2.591318   -1.410950   -0.007280
      5          6           0        1.914488    0.256058   -0.067034
      6          6           0        2.456962    1.489579    0.154198
      7          8           0        1.652922    2.485696    0.422703
      8          6           0        0.297895    1.913092    0.410010
      9          8           0       -0.631594    2.574911    0.702933
     10          6           0       -0.448783   -1.864622    0.412321
     11          8           0        0.463765   -2.534778    0.800250
     12          8           0       -1.743810   -2.408664    0.319080
     13          1           0       -3.623498   -1.685488   -0.160888
     14          6           0       -2.664521    0.956529   -0.591085
     15          7           0       -3.256916    1.855034   -1.010166
     16         16           0        2.798108   -1.079098   -0.811232
     17          1           0        2.283384   -2.056782   -0.033368
 ---------------------------------------------------------------------
                    Distance matrix (angstroms):
                    1          2          3          4          5
     1  C    0.000000
     2  C    1.376291   0.000000
     3  C    2.573056   1.452022   0.000000
     4  C    3.608317   2.256819   1.361196   0.000000
     5  C    1.447806   2.575722   3.925636   4.804662   0.000000
     6  C    2.218935   3.576216   4.759626   5.824455   1.365575
     7  O    2.355903   3.671315   4.553887   5.777743   2.297726
     8  C    1.496697   2.508624   3.155473   4.423905   2.363621
     9  O    2.467518   3.057982   3.195725   4.498001   3.528805
    10  C    2.526212   1.484523   2.329208   2.229874   3.211248
    11  O    3.073985   2.456809   3.508864   3.353897   3.262751
    12  O    3.643145   2.322435   2.267602   1.349153   4.542353
    13  H    4.648850   3.318526   2.213365   1.079056   5.869216
    14  C    3.270730   2.600687   1.418292   2.439497   4.661825
    15  N    4.153208   3.691719   2.572028   3.480726   5.494510
    16  S    2.921087   3.544376   4.910495   5.459155   1.765575
    17  H    3.092607   3.288120   4.655581   4.917367   2.342316
                    6          7          8          9         10
     6  C    0.000000
     7  O    1.307985   0.000000
     8  C    2.215033   1.471100   0.000000
     9  O    3.319373   2.303367   1.178031   0.000000
    10  C    4.445295   4.831412   3.850799   4.452789   0.000000
    11  O    4.537143   5.173180   4.468036   5.226682   1.196805
    12  O    5.733234   5.958463   4.780628   5.120585   1.407754
    13  H    6.866755   6.751293   5.352852   5.277184   3.231017
    14  C    5.202805   4.691101   3.270032   2.902832   3.724944
    15  N    5.842748   5.153383   3.828440   3.216403   4.872876
    16  S    2.765237   3.942309   4.086037   5.235201   3.557588
    17  H    3.555557   4.608643   4.460790   5.521940   2.774942
                   11         12         13         14         15
    11  O    0.000000
    12  O    2.262922   0.000000
    13  H    4.283783   2.070406   0.000000
    14  C    4.889909   3.605639   2.843406   0.000000
    15  N    6.032539   4.715454   3.659365   1.154934   0.000000
    16  S    3.188265   4.865632   6.482876   5.833743   6.731420
    17  H    2.057769   4.057873   5.919913   5.820039   6.852106
                   16         17
    16  S    0.000000
    17  H    1.351251   0.000000
 Stoichiometry    C9H2NO4S(2)
 Framework group  C1[X(C9H2NO4S)]
 Deg. of freedom    45
 Full point group                 C1      NOp   1
 Largest Abelian subgroup         C1      NOp   1
 Largest concise Abelian subgroup C1      NOp   1
                         Standard orientation:                         
 ---------------------------------------------------------------------
 Center     Atomic      Atomic             Coordinates (Angstroms)
 Number     Number       Type             X           Y           Z
 ---------------------------------------------------------------------
      1          6           0       -0.491845    0.460091   -0.107897
      2          6           0        0.565893   -0.420274   -0.089906
      3          6           0        1.984251   -0.198620    0.128034
      4          6           0        2.591318   -1.410950    0.007280
      5          6           0       -1.914488    0.256058    0.067034
      6          6           0       -2.456962    1.489579   -0.154198
      7          8           0       -1.652922    2.485696   -0.422703
      8          6           0       -0.297895    1.913092   -0.410010
      9          8           0        0.631594    2.574911   -0.702933
     10          6           0        0.448783   -1.864622   -0.412321
     11          8           0       -0.463765   -2.534778   -0.800250
     12          8           0        1.743810   -2.408664   -0.319080
     13          1           0        3.623498   -1.685489    0.160888
     14          6           0        2.664521    0.956528    0.591085
     15          7           0        3.256916    1.855033    1.010166
     16         16           0       -2.798108   -1.079098    0.811232
     17          1           0       -2.283384   -2.056782    0.033368
 ---------------------------------------------------------------------
 Rotational constants (GHZ):           0.7088249           0.5456510           0.3357664
 Standard basis: 6-311++G(d,p) (5D, 7F)
 There are   367 symmetry adapted cartesian basis functions of A   symmetry.
 There are   352 symmetry adapted basis functions of A   symmetry.
   352 basis functions,   572 primitive gaussians,   367 cartesian basis functions
    56 alpha electrons       55 beta electrons
       nuclear repulsion energy      1004.8534597341 Hartrees.
 NAtoms=   17 NActive=   17 NUniq=   17 SFac= 1.00D+00 NAtFMM=   60 NAOKFM=F Big=F
 Integral buffers will be    131072 words long.
 Regular integral format.
 Two-electron integral symmetry is turned on.
 One-electron integrals computed using PRISM.
 NBasis=   352 RedAO= T EigKep=  2.25D-06  NBF=   352
 NBsUse=   350 1.00D-06 EigRej=  5.90D-07 NBFU=   350
 ExpMin= 3.60D-02 ExpMax= 9.34D+04 ExpMxC= 3.17D+03 IAcc=3 IRadAn=         5 AccDes= 0.00D+00
 Harris functional with IExCor=  402 and IRadAn=       5 diagonalized for initial guess.
 HarFok:  IExCor=  402 AccDes= 0.00D+00 IRadAn=         5 IDoV= 1 UseB2=F ITyADJ=14
 ICtDFT=  3500011 ScaDFX=  1.000000  1.000000  1.000000  1.000000
 FoFCou: FMM=F IPFlag=           0 FMFlag=      100000 FMFlg1=           0
         NFxFlg=           0 DoJE=T BraDBF=F KetDBF=T FulRan=T
         wScrn=  0.000000 ICntrl=       500 IOpCl=  0 I1Cent=   200000004 NGrid=           0
         NMat0=    1 NMatS0=      1 NMatT0=    0 NMatD0=    1 NMtDS0=    0 NMtDT0=    0
 Petite list used in FoFCou.
 Initial guess <Sx>= 0.0000 <Sy>= 0.0000 <Sz>= 0.5000 <S**2>= 0.7500 S= 0.5000
 Requested convergence on RMS density matrix=1.00D-08 within 128 cycles.
 Requested convergence on MAX density matrix=1.00D-06.
 Requested convergence on             energy=1.00D-06.
 No special actions if energy rises.
 Restarting incremental Fock formation.
 SCF Done:  E(UB3LYP) =  -1098.05129561     A.U. after   29 cycles
            NFock= 29  Conv=0.92D-08     -V/T= 2.0027
 <Sx>= 0.0000 <Sy>= 0.0000 <Sz>= 0.5000 <S**2>= 0.8076 S= 0.5284
 <L.S>=  0.00000000000    
 Annihilation of the first spin contaminant:
 S**2 before annihilation     0.8076,   after     0.7506
 DoSCS=F DFT=T ScalE2(SS,OS)=  1.000000  1.000000
 ExpMin= 3.60D-02 ExpMax= 9.34D+04 ExpMxC= 3.17D+03 IAcc=3 IRadAn=         5 AccDes= 0.00D+00
 HarFok:  IExCor=  205 AccDes= 0.00D+00 IRadAn=         5 IDoV=-2 UseB2=F ITyADJ=14
 ICtDFT= 12500011 ScaDFX=  1.000000  1.000000  1.000000  1.000000
 Range of M.O.s used for correlation:    20   350
 NBasis=   352 NAE=    56 NBE=    55 NFC=    19 NFV=     0
 NROrb=    331 NOA=    37 NOB=    36 NVA=   294 NVB=   295

 **** Warning!!: The largest alpha MO coefficient is  0.12757737D+03


 **** Warning!!: The smallest alpha delta epsilon is  0.87873669D-01


 **** Warning!!: The largest beta MO coefficient is  0.12643251D+03


 **** Warning!!: The smallest beta delta epsilon is  0.81276562D-01

 Ignoring spin specification with unrestricted ground state.
 Orbital symmetries:
 Alpha Orbitals:
       Occupied  (A) (A) (A) (A) (A) (A) (A) (A) (A) (A) (A) (A)
                 (A) (A) (A) (A) (A) (A) (A) (A) (A) (A) (A) (A)
                 (A) (A) (A) (A) (A) (A) (A) (A) (A) (A) (A) (A)
                 (A) (A) (A) (A) (A) (A) (A) (A) (A) (A) (A) (A)
                 (A) (A) (A) (A) (A) (A) (A) (A)
       Virtual   (A) (A) (A) (A) (A) (A) (A) (A) (A) (A) (A) (A)
                 (A) (A) (A) (A) (A) (A) (A) (A) (A) (A) (A) (A)
                 (A) (A) (A) (A) (A) (A) (A) (A) (A) (A) (A) (A)
                 (A) (A) (A) (A) (A) (A) (A) (A) (A) (A) (A) (A)
                 (A) (A) (A) (A) (A) (A) (A) (A) (A) (A) (A) (A)
                 (A) (A) (A) (A) (A) (A) (A) (A) (A) (A) (A) (A)
                 (A) (A) (A) (A) (A) (A) (A) (A) (A) (A) (A) (A)
                 (A) (A) (A) (A) (A) (A) (A) (A) (A) (A) (A) (A)
                 (A) (A) (A) (A) (A) (A) (A) (A) (A) (A) (A) (A)
                 (A) (A) (A) (A) (A) (A) (A) (A) (A) (A) (A) (A)
                 (A) (A) (A) (A) (A) (A) (A) (A) (A) (A) (A) (A)
                 (A) (A) (A) (A) (A) (A) (A) (A) (A) (A) (A) (A)
                 (A) (A) (A) (A) (A) (A) (A) (A) (A) (A) (A) (A)
                 (A) (A) (A) (A) (A) (A) (A) (A) (A) (A) (A) (A)
                 (A) (A) (A) (A) (A) (A) (A) (A) (A) (A) (A) (A)
                 (A) (A) (A) (A) (A) (A) (A) (A) (A) (A) (A) (A)
                 (A) (A) (A) (A) (A) (A) (A) (A) (A) (A) (A) (A)
                 (A) (A) (A) (A) (A) (A) (A) (A) (A) (A) (A) (A)
                 (A) (A) (A) (A) (A) (A) (A) (A) (A) (A) (A) (A)
                 (A) (A) (A) (A) (A) (A) (A) (A) (A) (A) (A) (A)
                 (A) (A) (A) (A) (A) (A) (A) (A) (A) (A) (A) (A)
                 (A) (A) (A) (A) (A) (A) (A) (A) (A) (A) (A) (A)
                 (A) (A) (A) (A) (A) (A) (A) (A) (A) (A) (A) (A)
                 (A) (A) (A) (A) (A) (A) (A) (A) (A) (A) (A) (A)
                 (A) (A) (A) (A) (A) (A)
 Beta  Orbitals:
       Occupied  (A) (A) (A) (A) (A) (A) (A) (A) (A) (A) (A) (A)
                 (A) (A) (A) (A) (A) (A) (A) (A) (A) (A) (A) (A)
                 (A) (A) (A) (A) (A) (A) (A) (A) (A) (A) (A) (A)
                 (A) (A) (A) (A) (A) (A) (A) (A) (A) (A) (A) (A)
                 (A) (A) (A) (A) (A) (A) (A)
       Virtual   (A) (A) (A) (A) (A) (A) (A) (A) (A) (A) (A) (A)
                 (A) (A) (A) (A) (A) (A) (A) (A) (A) (A) (A) (A)
                 (A) (A) (A) (A) (A) (A) (A) (A) (A) (A) (A) (A)
                 (A) (A) (A) (A) (A) (A) (A) (A) (A) (A) (A) (A)
                 (A) (A) (A) (A) (A) (A) (A) (A) (A) (A) (A) (A)
                 (A) (A) (A) (A) (A) (A) (A) (A) (A) (A) (A) (A)
                 (A) (A) (A) (A) (A) (A) (A) (A) (A) (A) (A) (A)
                 (A) (A) (A) (A) (A) (A) (A) (A) (A) (A) (A) (A)
                 (A) (A) (A) (A) (A) (A) (A) (A) (A) (A) (A) (A)
                 (A) (A) (A) (A) (A) (A) (A) (A) (A) (A) (A) (A)
                 (A) (A) (A) (A) (A) (A) (A) (A) (A) (A) (A) (A)
                 (A) (A) (A) (A) (A) (A) (A) (A) (A) (A) (A) (A)
                 (A) (A) (A) (A) (A) (A) (A) (A) (A) (A) (A) (A)
                 (A) (A) (A) (A) (A) (A) (A) (A) (A) (A) (A) (A)
                 (A) (A) (A) (A) (A) (A) (A) (A) (A) (A) (A) (A)
                 (A) (A) (A) (A) (A) (A) (A) (A) (A) (A) (A) (A)
                 (A) (A) (A) (A) (A) (A) (A) (A) (A) (A) (A) (A)
                 (A) (A) (A) (A) (A) (A) (A) (A) (A) (A) (A) (A)
                 (A) (A) (A) (A) (A) (A) (A) (A) (A) (A) (A) (A)
                 (A) (A) (A) (A) (A) (A) (A) (A) (A) (A) (A) (A)
                 (A) (A) (A) (A) (A) (A) (A) (A) (A) (A) (A) (A)
                 (A) (A) (A) (A) (A) (A) (A) (A) (A) (A) (A) (A)
                 (A) (A) (A) (A) (A) (A) (A) (A) (A) (A) (A) (A)
                 (A) (A) (A) (A) (A) (A) (A) (A) (A) (A) (A) (A)
                 (A) (A) (A) (A) (A) (A) (A)
    12 initial guesses have been made.
 Convergence on wavefunction:    0.001000000000000
 Iteration     1 Dimension    12 NMult     0 NNew     12
 CISAX will form    12 AO SS matrices at one time.
 New state      2 was old state      3
 New state      3 was old state      5
 Iteration     2 Dimension    18 NMult    12 NNew      6
 Iteration     3 Dimension    24 NMult    18 NNew      6
 Iteration     4 Dimension    30 NMult    24 NNew      6
 Iteration     5 Dimension    36 NMult    30 NNew      6
 Iteration     6 Dimension    42 NMult    36 NNew      6
 Iteration     7 Dimension    48 NMult    42 NNew      6
 ***********************************************************************
 Excited states from <AA,BB:AA,BB> singles matrix:
 ***********************************************************************
 
 ExtSpn:  IState=     1 X2= 1.097 Y2= 0.097 X2-Y2-1=-4.44D-16
          S2Grnd=  0.808 Ra=  0.290 Rb=  0.249 T=  0.558 S2Ext=  1.097 S2=  1.905
 ExtSpn:  IState=     2 X2= 1.024 Y2= 0.024 X2-Y2-1= 4.44D-16
          S2Grnd=  0.808 Ra=  0.163 Rb=  0.148 T=  0.326 S2Ext=  0.637 S2=  1.445
 ExtSpn:  IState=     3 X2= 1.016 Y2= 0.016 X2-Y2-1= 0.00D+00
          S2Grnd=  0.808 Ra=  0.449 Rb=  0.397 T= -0.847 S2Ext= -0.001 S2=  0.806
 Ground to excited state transition densities written to RWF  633
 Ground to excited state transition electric dipole moments (Au):
       state          X           Y           Z        Dip. S.      Osc.
         1        -0.1825      0.0349     -0.0407      0.0362      0.0007
         2         0.0940     -0.2355      0.1073      0.0758      0.0021
         3        -0.7039      0.5517      0.0298      0.8008      0.0379
 Ground to excited state transition velocity dipole moments (Au):
       state          X           Y           Z        Dip. S.      Osc.
         1         0.0056     -0.0019     -0.0017      0.0000      0.0009
         2        -0.0041      0.0112     -0.0002      0.0001      0.0023
         3         0.0484     -0.0410     -0.0018      0.0040      0.0378
 Ground to excited state transition magnetic dipole moments (Au):
       state          X           Y           Z
         1        -0.0699     -0.1236     -0.0410
         2         0.1088      0.2005     -0.0053
         3         0.0282      0.1591      0.1404
 Ground to excited state transition velocity quadrupole moments (Au):
       state          XX          YY          ZZ          XY          XZ          YZ
         1        -0.0406      0.0050      0.0006      0.0218     -0.0021      0.0006
         2         0.0161      0.0186     -0.0075     -0.0559     -0.0015      0.0008
         3        -0.0358     -0.0089     -0.0029      0.0032      0.0214      0.0664
 <0|del|b> * <b|rxdel|0> + <0|del|b> * <b|delr+rdel|0>
 Rotatory Strengths (R) in cgs (10**-40 erg-esu-cm/Gauss)
       state          XX          YY          ZZ    R(velocity)    E-M Angle
         1         3.2415     -3.3306     -1.7607     -0.6166       90.00
         2        19.5978     -3.9639     15.3864     10.3401       48.64
         3       -29.3694     21.6075    -46.0504    -17.9374      113.43
 1/2[<0|r|b>*<b|rxdel|0> + (<0|rxdel|b>*<b|r|0>)*]
 Rotatory Strengths (R) in cgs (10**-40 erg-esu-cm/Gauss)
       state          XX          YY          ZZ     R(length)
         1        -9.0201      3.0526     -1.1826     -2.3834
         2        -7.2348     33.3969      0.4037      8.8553
         3        14.0543    -62.0775     -2.9583    -16.9938
  1/2[<0|del|b>*<b|r|0> + (<0|r|b>*<b|del|0>)*] (Au)
       state          X           Y           Z        Dip. S.   Osc.(frdel)
         1        -0.0010     -0.0001      0.0001      0.0010      0.0007
         2        -0.0004     -0.0026     -0.0000      0.0030      0.0020
         3        -0.0341     -0.0226     -0.0001      0.0567      0.0378

 Excitation energies and oscillator strengths:
 
 Excited State   1:  2.936-A      0.8013 eV 1547.31 nm  f=0.0007  <S**2>=1.905
     55A -> 57A       -0.18545
     56A -> 57A       -0.57099
     54B -> 57B        0.15795
     55B -> 56B        0.78277
     55B -> 57B        0.21990
     56A <- 57A       -0.17533
     55B <- 56B        0.13617
     55B <- 57B        0.10843
 This state for optimization and/or second-order correction.
 Total Energy, E(TD-HF/TD-DFT) =  -1098.02184870    
 Copying the excited state density for this state as the 1-particle RhoCI density.
 
 Excited State   2:  2.604-A      1.1186 eV 1108.38 nm  f=0.0021  <S**2>=1.445
     55A -> 57A       -0.13587
     56A -> 57A       -0.43045
     54B -> 56B        0.12711
     54B -> 57B        0.11750
     55B -> 56B       -0.52745
     55B -> 57B        0.69236
 
 Excited State   3:  2.055-A      1.9315 eV  641.92 nm  f=0.0379  <S**2>=0.806
     55A -> 57A       -0.35519
     56A -> 57A        0.65365
     54B -> 56B       -0.12825
     54B -> 57B       -0.11813
     55B -> 56B        0.25790
     55B -> 57B        0.58338
 SavETr:  write IOETrn=   770 NScale= 10 NData=  16 NLR=1 NState=    3 LETran=      64.

 **********************************************************************

            Population analysis using the SCF Density.

 **********************************************************************

 Orbital symmetries:
 Alpha Orbitals:
       Occupied  (A) (A) (A) (A) (A) (A) (A) (A) (A) (A) (A) (A)
                 (A) (A) (A) (A) (A) (A) (A) (A) (A) (A) (A) (A)
                 (A) (A) (A) (A) (A) (A) (A) (A) (A) (A) (A) (A)
                 (A) (A) (A) (A) (A) (A) (A) (A) (A) (A) (A) (A)
                 (A) (A) (A) (A) (A) (A) (A) (A)
       Virtual   (A) (A) (A) (A) (A) (A) (A) (A) (A) (A) (A) (A)
                 (A) (A) (A) (A) (A) (A) (A) (A) (A) (A) (A) (A)
                 (A) (A) (A) (A) (A) (A) (A) (A) (A) (A) (A) (A)
                 (A) (A) (A) (A) (A) (A) (A) (A) (A) (A) (A) (A)
                 (A) (A) (A) (A) (A) (A) (A) (A) (A) (A) (A) (A)
                 (A) (A) (A) (A) (A) (A) (A) (A) (A) (A) (A) (A)
                 (A) (A) (A) (A) (A) (A) (A) (A) (A) (A) (A) (A)
                 (A) (A) (A) (A) (A) (A) (A) (A) (A) (A) (A) (A)
                 (A) (A) (A) (A) (A) (A) (A) (A) (A) (A) (A) (A)
                 (A) (A) (A) (A) (A) (A) (A) (A) (A) (A) (A) (A)
                 (A) (A) (A) (A) (A) (A) (A) (A) (A) (A) (A) (A)
                 (A) (A) (A) (A) (A) (A) (A) (A) (A) (A) (A) (A)
                 (A) (A) (A) (A) (A) (A) (A) (A) (A) (A) (A) (A)
                 (A) (A) (A) (A) (A) (A) (A) (A) (A) (A) (A) (A)
                 (A) (A) (A) (A) (A) (A) (A) (A) (A) (A) (A) (A)
                 (A) (A) (A) (A) (A) (A) (A) (A) (A) (A) (A) (A)
                 (A) (A) (A) (A) (A) (A) (A) (A) (A) (A) (A) (A)
                 (A) (A) (A) (A) (A) (A) (A) (A) (A) (A) (A) (A)
                 (A) (A) (A) (A) (A) (A) (A) (A) (A) (A) (A) (A)
                 (A) (A) (A) (A) (A) (A) (A) (A) (A) (A) (A) (A)
                 (A) (A) (A) (A) (A) (A) (A) (A) (A) (A) (A) (A)
                 (A) (A) (A) (A) (A) (A) (A) (A) (A) (A) (A) (A)
                 (A) (A) (A) (A) (A) (A) (A) (A) (A) (A) (A) (A)
                 (A) (A) (A) (A) (A) (A) (A) (A) (A) (A) (A) (A)
                 (A) (A) (A) (A) (A) (A)
 Beta  Orbitals:
       Occupied  (A) (A) (A) (A) (A) (A) (A) (A) (A) (A) (A) (A)
                 (A) (A) (A) (A) (A) (A) (A) (A) (A) (A) (A) (A)
                 (A) (A) (A) (A) (A) (A) (A) (A) (A) (A) (A) (A)
                 (A) (A) (A) (A) (A) (A) (A) (A) (A) (A) (A) (A)
                 (A) (A) (A) (A) (A) (A) (A)
       Virtual   (A) (A) (A) (A) (A) (A) (A) (A) (A) (A) (A) (A)
                 (A) (A) (A) (A) (A) (A) (A) (A) (A) (A) (A) (A)
                 (A) (A) (A) (A) (A) (A) (A) (A) (A) (A) (A) (A)
                 (A) (A) (A) (A) (A) (A) (A) (A) (A) (A) (A) (A)
                 (A) (A) (A) (A) (A) (A) (A) (A) (A) (A) (A) (A)
                 (A) (A) (A) (A) (A) (A) (A) (A) (A) (A) (A) (A)
                 (A) (A) (A) (A) (A) (A) (A) (A) (A) (A) (A) (A)
                 (A) (A) (A) (A) (A) (A) (A) (A) (A) (A) (A) (A)
                 (A) (A) (A) (A) (A) (A) (A) (A) (A) (A) (A) (A)
                 (A) (A) (A) (A) (A) (A) (A) (A) (A) (A) (A) (A)
                 (A) (A) (A) (A) (A) (A) (A) (A) (A) (A) (A) (A)
                 (A) (A) (A) (A) (A) (A) (A) (A) (A) (A) (A) (A)
                 (A) (A) (A) (A) (A) (A) (A) (A) (A) (A) (A) (A)
                 (A) (A) (A) (A) (A) (A) (A) (A) (A) (A) (A) (A)
                 (A) (A) (A) (A) (A) (A) (A) (A) (A) (A) (A) (A)
                 (A) (A) (A) (A) (A) (A) (A) (A) (A) (A) (A) (A)
                 (A) (A) (A) (A) (A) (A) (A) (A) (A) (A) (A) (A)
                 (A) (A) (A) (A) (A) (A) (A) (A) (A) (A) (A) (A)
                 (A) (A) (A) (A) (A) (A) (A) (A) (A) (A) (A) (A)
                 (A) (A) (A) (A) (A) (A) (A) (A) (A) (A) (A) (A)
                 (A) (A) (A) (A) (A) (A) (A) (A) (A) (A) (A) (A)
                 (A) (A) (A) (A) (A) (A) (A) (A) (A) (A) (A) (A)
                 (A) (A) (A) (A) (A) (A) (A) (A) (A) (A) (A) (A)
                 (A) (A) (A) (A) (A) (A) (A) (A) (A) (A) (A) (A)
                 (A) (A) (A) (A) (A) (A) (A)
 The electronic state is 2-A.
 Alpha  occ. eigenvalues --  -88.88406 -19.24316 -19.24062 -19.19795 -19.17597
 Alpha  occ. eigenvalues --  -14.34052 -10.37138 -10.36244 -10.32222 -10.30912
 Alpha  occ. eigenvalues --  -10.28155 -10.27161 -10.26653 -10.26525 -10.23958
 Alpha  occ. eigenvalues --   -7.97077  -5.93500  -5.93065  -5.92445  -1.18740
 Alpha  occ. eigenvalues --   -1.18330  -1.12662  -1.10291  -0.94196  -0.91536
 Alpha  occ. eigenvalues --   -0.87425  -0.81587  -0.77735  -0.75007  -0.71291
 Alpha  occ. eigenvalues --   -0.68607  -0.62315  -0.61200  -0.57460  -0.56062
 Alpha  occ. eigenvalues --   -0.53851  -0.53087  -0.52986  -0.50861  -0.49542
 Alpha  occ. eigenvalues --   -0.48745  -0.46025  -0.45287  -0.44123  -0.42947
 Alpha  occ. eigenvalues --   -0.41122  -0.40160  -0.39142  -0.38950  -0.37216
 Alpha  occ. eigenvalues --   -0.36784  -0.34442  -0.32479  -0.31500  -0.28697
 Alpha  occ. eigenvalues --   -0.25689
 Alpha virt. eigenvalues --   -0.16901  -0.06828  -0.04160  -0.02845  -0.01776
 Alpha virt. eigenvalues --   -0.00970  -0.00482  -0.00193   0.01040   0.01936
 Alpha virt. eigenvalues --    0.02134   0.02971   0.03743   0.04537   0.04970
 Alpha virt. eigenvalues --    0.05171   0.05869   0.06317   0.07016   0.07557
 Alpha virt. eigenvalues --    0.07829   0.08501   0.08784   0.09043   0.09133
 Alpha virt. eigenvalues --    0.09562   0.10102   0.10391   0.11351   0.11929
 Alpha virt. eigenvalues --    0.12209   0.12549   0.13740   0.14012   0.14292
 Alpha virt. eigenvalues --    0.14741   0.15102   0.15591   0.15751   0.16271
 Alpha virt. eigenvalues --    0.17045   0.17578   0.17915   0.18637   0.19043
 Alpha virt. eigenvalues --    0.19473   0.19914   0.20956   0.22133   0.22802
 Alpha virt. eigenvalues --    0.23181   0.23601   0.24203   0.24437   0.24740
 Alpha virt. eigenvalues --    0.25428   0.25699   0.26016   0.26407   0.26876
 Alpha virt. eigenvalues --    0.27343   0.27513   0.28135   0.28382   0.28917
 Alpha virt. eigenvalues --    0.29309   0.29792   0.30632   0.30791   0.31421
 Alpha virt. eigenvalues --    0.32498   0.33086   0.33605   0.33858   0.34269
 Alpha virt. eigenvalues --    0.34895   0.36082   0.36893   0.37428   0.38357
 Alpha virt. eigenvalues --    0.39336   0.40709   0.42901   0.44108   0.47021
 Alpha virt. eigenvalues --    0.47318   0.48376   0.51433   0.52834   0.53535
 Alpha virt. eigenvalues --    0.54325   0.55747   0.56124   0.56484   0.58206
 Alpha virt. eigenvalues --    0.58507   0.59786   0.60147   0.60565   0.61824
 Alpha virt. eigenvalues --    0.62334   0.63767   0.65534   0.66954   0.68324
 Alpha virt. eigenvalues --    0.71113   0.71767   0.72291   0.73845   0.74727
 Alpha virt. eigenvalues --    0.75627   0.76444   0.77537   0.78836   0.80766
 Alpha virt. eigenvalues --    0.81809   0.84435   0.85262   0.86157   0.87583
 Alpha virt. eigenvalues --    0.88474   0.88878   0.90389   0.91672   0.91943
 Alpha virt. eigenvalues --    0.94429   0.95884   0.96696   0.97396   0.99117
 Alpha virt. eigenvalues --    0.99474   1.00231   1.01682   1.02756   1.04457
 Alpha virt. eigenvalues --    1.05371   1.07400   1.08559   1.11032   1.12231
 Alpha virt. eigenvalues --    1.12838   1.14059   1.15453   1.15906   1.17856
 Alpha virt. eigenvalues --    1.18515   1.19421   1.20263   1.21037   1.21498
 Alpha virt. eigenvalues --    1.22636   1.23906   1.25403   1.27695   1.29538
 Alpha virt. eigenvalues --    1.31436   1.34393   1.36231   1.37882   1.41558
 Alpha virt. eigenvalues --    1.42973   1.47076   1.48342   1.49861   1.50740
 Alpha virt. eigenvalues --    1.54711   1.56443   1.60278   1.61561   1.63450
 Alpha virt. eigenvalues --    1.63620   1.66593   1.67587   1.67886   1.70513
 Alpha virt. eigenvalues --    1.72665   1.72705   1.74714   1.76107   1.76835
 Alpha virt. eigenvalues --    1.78630   1.78954   1.82941   1.84641   1.88910
 Alpha virt. eigenvalues --    1.90108   1.91147   1.93485   1.95373   1.96847
 Alpha virt. eigenvalues --    1.99003   2.00436   2.00654   2.02681   2.07245
 Alpha virt. eigenvalues --    2.09972   2.11269   2.14203   2.18296   2.22050
 Alpha virt. eigenvalues --    2.26474   2.27912   2.30855   2.41957   2.54727
 Alpha virt. eigenvalues --    2.57536   2.58501   2.60183   2.61487   2.62432
 Alpha virt. eigenvalues --    2.63595   2.65472   2.68259   2.70976   2.73941
 Alpha virt. eigenvalues --    2.76544   2.78798   2.81411   2.82573   2.84019
 Alpha virt. eigenvalues --    2.85709   2.86101   2.89375   2.91015   2.93001
 Alpha virt. eigenvalues --    2.95420   2.97455   2.98157   2.99730   3.00807
 Alpha virt. eigenvalues --    3.01562   3.03580   3.06979   3.10284   3.11432
 Alpha virt. eigenvalues --    3.12177   3.14650   3.14819   3.16673   3.22373
 Alpha virt. eigenvalues --    3.30595   3.32761   3.34161   3.36650   3.40191
 Alpha virt. eigenvalues --    3.48155   3.51596   3.54388   3.56525   3.66214
 Alpha virt. eigenvalues --    3.69549   3.74075   3.86747   3.94574   3.96475
 Alpha virt. eigenvalues --    3.97993   4.01563   4.03117   4.05007   4.22903
 Alpha virt. eigenvalues --    4.28384   4.41343   4.61423   4.92597   4.92712
 Alpha virt. eigenvalues --    4.99602   5.02032   5.12264   5.17095   5.30050
 Alpha virt. eigenvalues --    5.35920   5.61404   5.65052   5.76639   5.83488
 Alpha virt. eigenvalues --    7.95410  17.30334  17.38324  17.47607  23.47409
 Alpha virt. eigenvalues --   23.61866  23.74290  23.82651  23.83252  23.99643
 Alpha virt. eigenvalues --   24.04206  24.07154  24.48648  35.87066  49.81393
 Alpha virt. eigenvalues --   49.83064  49.98039  50.00726 189.12819
  Beta  occ. eigenvalues --  -88.88400 -19.24119 -19.24057 -19.19594 -19.17720
  Beta  occ. eigenvalues --  -14.34033 -10.37061 -10.36235 -10.31029 -10.30524
  Beta  occ. eigenvalues --  -10.27959 -10.27300 -10.26597 -10.26442 -10.23967
  Beta  occ. eigenvalues --   -7.97071  -5.93488  -5.93059  -5.92441  -1.18400
  Beta  occ. eigenvalues --   -1.18128  -1.12158  -1.10475  -0.94168  -0.91305
  Beta  occ. eigenvalues --   -0.87122  -0.81339  -0.77646  -0.73677  -0.70965
  Beta  occ. eigenvalues --   -0.68138  -0.61996  -0.60930  -0.56917  -0.55748
  Beta  occ. eigenvalues --   -0.53727  -0.52727  -0.52646  -0.50829  -0.49068
  Beta  occ. eigenvalues --   -0.48506  -0.45513  -0.45189  -0.43389  -0.43161
  Beta  occ. eigenvalues --   -0.41102  -0.40110  -0.39110  -0.37612  -0.37015
  Beta  occ. eigenvalues --   -0.36071  -0.33906  -0.32430  -0.28691  -0.25403
  Beta virt. eigenvalues --   -0.17276  -0.16145  -0.07105  -0.03279  -0.02083
  Beta virt. eigenvalues --   -0.01663  -0.00976  -0.00311  -0.00131   0.01102
  Beta virt. eigenvalues --    0.02074   0.02218   0.03243   0.03849   0.04662
  Beta virt. eigenvalues --    0.05089   0.05251   0.05913   0.06346   0.07094
  Beta virt. eigenvalues --    0.07556   0.07951   0.08740   0.08984   0.09137
  Beta virt. eigenvalues --    0.09211   0.09585   0.10193   0.10462   0.11398
  Beta virt. eigenvalues --    0.12153   0.12318   0.12562   0.13810   0.14204
  Beta virt. eigenvalues --    0.14397   0.14886   0.15182   0.15658   0.15871
  Beta virt. eigenvalues --    0.16404   0.17190   0.17596   0.18180   0.18773
  Beta virt. eigenvalues --    0.19109   0.19522   0.20072   0.20993   0.22202
  Beta virt. eigenvalues --    0.22839   0.23240   0.23701   0.24252   0.24462
  Beta virt. eigenvalues --    0.24836   0.25506   0.25709   0.26045   0.26461
  Beta virt. eigenvalues --    0.26926   0.27518   0.27555   0.28162   0.28375
  Beta virt. eigenvalues --    0.28972   0.29450   0.29852   0.30712   0.30869
  Beta virt. eigenvalues --    0.31657   0.32569   0.33231   0.33829   0.33907
  Beta virt. eigenvalues --    0.34367   0.35156   0.36244   0.37000   0.37765
  Beta virt. eigenvalues --    0.38598   0.39498   0.41150   0.43148   0.44073
  Beta virt. eigenvalues --    0.47312   0.47663   0.48575   0.52054   0.53267
  Beta virt. eigenvalues --    0.53765   0.54920   0.56293   0.56755   0.57426
  Beta virt. eigenvalues --    0.58398   0.59124   0.59980   0.60356   0.60804
  Beta virt. eigenvalues --    0.61888   0.62428   0.64085   0.65566   0.67279
  Beta virt. eigenvalues --    0.68561   0.71227   0.71986   0.72430   0.74022
  Beta virt. eigenvalues --    0.74936   0.75642   0.76591   0.77565   0.79029
  Beta virt. eigenvalues --    0.80834   0.81962   0.84557   0.85802   0.86242
  Beta virt. eigenvalues --    0.87665   0.88686   0.89233   0.90555   0.91932
  Beta virt. eigenvalues --    0.92535   0.94565   0.95934   0.97044   0.97515
  Beta virt. eigenvalues --    0.99372   0.99752   1.00506   1.01928   1.02830
  Beta virt. eigenvalues --    1.04491   1.05712   1.07808   1.08721   1.11486
  Beta virt. eigenvalues --    1.12432   1.13076   1.14260   1.15505   1.16015
  Beta virt. eigenvalues --    1.17867   1.18560   1.19625   1.20375   1.21104
  Beta virt. eigenvalues --    1.21764   1.22800   1.24034   1.25906   1.29855
  Beta virt. eigenvalues --    1.30361   1.31452   1.34474   1.36522   1.38211
  Beta virt. eigenvalues --    1.41628   1.43592   1.47423   1.48646   1.49976
  Beta virt. eigenvalues --    1.50950   1.54776   1.56544   1.60656   1.61787
  Beta virt. eigenvalues --    1.63486   1.63766   1.67159   1.67965   1.68358
  Beta virt. eigenvalues --    1.70743   1.72985   1.73195   1.75731   1.76566
  Beta virt. eigenvalues --    1.77319   1.78816   1.79494   1.83374   1.85151
  Beta virt. eigenvalues --    1.88986   1.91071   1.91607   1.94044   1.95665
  Beta virt. eigenvalues --    1.97262   1.99231   2.00610   2.01244   2.02785
  Beta virt. eigenvalues --    2.07386   2.10038   2.11315   2.14510   2.18844
  Beta virt. eigenvalues --    2.22107   2.27058   2.29052   2.30954   2.42099
  Beta virt. eigenvalues --    2.54815   2.57785   2.58967   2.60779   2.61971
  Beta virt. eigenvalues --    2.62841   2.64091   2.65953   2.68247   2.71010
  Beta virt. eigenvalues --    2.74273   2.76994   2.78877   2.82074   2.82487
  Beta virt. eigenvalues --    2.84196   2.85809   2.87701   2.90158   2.90997
  Beta virt. eigenvalues --    2.93258   2.95579   2.97631   2.98321   2.99767
  Beta virt. eigenvalues --    3.01271   3.01960   3.03649   3.06938   3.10289
  Beta virt. eigenvalues --    3.11470   3.12136   3.14941   3.15669   3.17379
  Beta virt. eigenvalues --    3.22559   3.30814   3.32800   3.34306   3.36658
  Beta virt. eigenvalues --    3.40507   3.48407   3.52184   3.55248   3.56612
  Beta virt. eigenvalues --    3.66236   3.69895   3.74153   3.87346   3.94519
  Beta virt. eigenvalues --    3.96785   3.98082   4.01574   4.03080   4.05001
  Beta virt. eigenvalues --    4.23284   4.28390   4.41440   4.61442   4.92639
  Beta virt. eigenvalues --    4.92927   5.00043   5.01558   5.12759   5.17007
  Beta virt. eigenvalues --    5.30391   5.35969   5.61846   5.64982   5.76981
  Beta virt. eigenvalues --    5.83436   7.95420  17.30344  17.38327  17.47623
  Beta virt. eigenvalues --   23.47922  23.62285  23.74496  23.82660  23.83340
  Beta virt. eigenvalues --   24.00279  24.04461  24.07142  24.48648  35.87086
  Beta virt. eigenvalues --   49.81583  49.83084  49.98167  50.00683 189.12824
          Condensed to atoms (all electrons):
               1          2          3          4          5          6
     1  C   11.867951  -0.142262   0.433713  -0.391093  -5.370648   1.746577
     2  C   -0.142262   9.423442  -1.618216   0.042516   0.497976   0.161290
     3  C    0.433713  -1.618216  16.795323   0.597508  -1.687047   0.373872
     4  C   -0.391093   0.042516   0.597508   8.417399   0.698711  -0.147554
     5  C   -5.370648   0.497976  -1.687047   0.698711  17.438321  -3.759785
     6  C    1.746577   0.161290   0.373872  -0.147554  -3.759785   9.533108
     7  O   -0.071742   0.019740   0.034450   0.001672  -0.010086  -0.095682
     8  C   -3.059130  -0.393153  -1.449781   0.112405   1.166526  -1.687597
     9  O   -0.023416   0.029579   0.074470   0.003826  -0.178269   0.072516
    10  C    0.782268  -2.612394   0.172568  -1.400155  -2.640256   0.200526
    11  O   -0.096654   0.004958  -0.024705   0.034447   0.161717   0.025120
    12  O   -0.023805  -0.032358  -0.002121   0.147799   0.039210   0.000305
    13  H    0.006497   0.028531  -0.002501   0.391574   0.015446  -0.000144
    14  C    0.341640   0.329192 -10.008370  -2.696399  -0.980761   0.074395
    15  N   -0.055307  -0.030630   0.710906   0.126314   0.002237   0.003327
    16  S   -0.288035  -0.208944  -0.236972   0.005505   0.262373  -0.606763
    17  H   -0.125839   0.051638   0.018097   0.019720   0.085027   0.045093
               7          8          9         10         11         12
     1  C   -0.071742  -3.059130  -0.023416   0.782268  -0.096654  -0.023805
     2  C    0.019740  -0.393153   0.029579  -2.612394   0.004958  -0.032358
     3  C    0.034450  -1.449781   0.074470   0.172568  -0.024705  -0.002121
     4  C    0.001672   0.112405   0.003826  -1.400155   0.034447   0.147799
     5  C   -0.010086   1.166526  -0.178269  -2.640256   0.161717   0.039210
     6  C   -0.095682  -1.687597   0.072516   0.200526   0.025120   0.000305
     7  O    8.069099   0.096300  -0.049405  -0.001068  -0.000105   0.000034
     8  C    0.096300  10.431294   0.235696   0.546258  -0.015652   0.002952
     9  O   -0.049405   0.235696   7.957466   0.001690  -0.000046  -0.000491
    10  C   -0.001068   0.546258   0.001690  10.540315   0.212581   0.045900
    11  O   -0.000105  -0.015652  -0.000046   0.212581   8.042112  -0.060888
    12  O    0.000034   0.002952  -0.000491   0.045900  -0.060888   8.046799
    13  H   -0.000085  -0.001017  -0.000454  -0.015907   0.000076  -0.059264
    14  C   -0.000924   0.175050   0.042819   0.430136   0.019916  -0.083045
    15  N   -0.000677   0.023124  -0.002034   0.039461  -0.000316  -0.000560
    16  S   -0.014448   0.299672  -0.000956   0.047665  -0.020766  -0.006438
    17  H    0.002829  -0.016764   0.000064  -0.064230  -0.014832   0.005087
              13         14         15         16         17
     1  C    0.006497   0.341640  -0.055307  -0.288035  -0.125839
     2  C    0.028531   0.329192  -0.030630  -0.208944   0.051638
     3  C   -0.002501 -10.008370   0.710906  -0.236972   0.018097
     4  C    0.391574  -2.696399   0.126314   0.005505   0.019720
     5  C    0.015446  -0.980761   0.002237   0.262373   0.085027
     6  C   -0.000144   0.074395   0.003327  -0.606763   0.045093
     7  O   -0.000085  -0.000924  -0.000677  -0.014448   0.002829
     8  C   -0.001017   0.175050   0.023124   0.299672  -0.016764
     9  O   -0.000454   0.042819  -0.002034  -0.000956   0.000064
    10  C   -0.015907   0.430136   0.039461   0.047665  -0.064230
    11  O    0.000076   0.019916  -0.000316  -0.020766  -0.014832
    12  O   -0.059264  -0.083045  -0.000560  -0.006438   0.005087
    13  H    0.469225  -0.090548   0.003020  -0.000480   0.000420
    14  C   -0.090548  20.758644  -0.577126   0.039952  -0.031093
    15  N    0.003020  -0.577126   6.905329  -0.000479   0.000504
    16  S   -0.000480   0.039952  -0.000479  16.934825   0.172703
    17  H    0.000420  -0.031093   0.000504   0.172703   0.751327
          Atomic-Atomic Spin Densities.
               1          2          3          4          5          6
     1  C    0.273660   0.036527   0.010756  -0.005957  -0.048973  -0.016636
     2  C    0.036527  -0.194252   0.059042  -0.008295  -0.032789   0.003208
     3  C    0.010756   0.059042   0.087472  -0.076174  -0.024469  -0.017077
     4  C   -0.005957  -0.008295  -0.076174  -0.093552  -0.001007   0.008052
     5  C   -0.048973  -0.032789  -0.024469  -0.001007  -0.209656   0.103145
     6  C   -0.016636   0.003208  -0.017077   0.008052   0.103145   1.036058
     7  O   -0.030516  -0.001496   0.000337   0.000609   0.020114  -0.128363
     8  C   -0.057935  -0.017035  -0.053977   0.008797   0.066719  -0.036594
     9  O    0.004332  -0.005996   0.013389   0.000446  -0.004365   0.004040
    10  C   -0.016383   0.060901   0.023520   0.039382   0.060004  -0.019229
    11  O   -0.002576   0.007318   0.000294   0.000212  -0.000981   0.001568
    12  O    0.000179   0.000554  -0.006844   0.010519   0.002318  -0.000031
    13  H   -0.000011  -0.000845  -0.002025   0.001398  -0.000100   0.000229
    14  C    0.007219   0.007318   0.037137   0.037594   0.037173  -0.008385
    15  N    0.002593  -0.001253  -0.000646   0.000470  -0.000291  -0.000021
    16  S    0.017987  -0.009281   0.009022  -0.000217  -0.026683   0.017068
    17  H   -0.002265  -0.009831  -0.006077   0.000312   0.004748  -0.001727
               7          8          9         10         11         12
     1  C   -0.030516  -0.057935   0.004332  -0.016383  -0.002576   0.000179
     2  C   -0.001496  -0.017035  -0.005996   0.060901   0.007318   0.000554
     3  C    0.000337  -0.053977   0.013389   0.023520   0.000294  -0.006844
     4  C    0.000609   0.008797   0.000446   0.039382   0.000212   0.010519
     5  C    0.020114   0.066719  -0.004365   0.060004  -0.000981   0.002318
     6  C   -0.128363  -0.036594   0.004040  -0.019229   0.001568  -0.000031
     7  O    0.117861   0.024412  -0.000848  -0.002109   0.000008   0.000016
     8  C    0.024412   0.096509  -0.030304  -0.003163  -0.000434   0.001102
     9  O   -0.000848  -0.030304   0.095866   0.000314  -0.000047   0.000007
    10  C   -0.002109  -0.003163   0.000314  -0.104610   0.007952  -0.006088
    11  O    0.000008  -0.000434  -0.000047   0.007952  -0.059357   0.001523
    12  O    0.000016   0.001102   0.000007  -0.006088   0.001523   0.000274
    13  H    0.000004   0.000150  -0.000067   0.001058   0.000026  -0.000205
    14  C    0.000602   0.003842  -0.005071  -0.045704   0.000253   0.000495
    15  N   -0.000016  -0.001987   0.000128  -0.000113  -0.000006  -0.000014
    16  S   -0.002127   0.013551  -0.000019   0.002726   0.000640  -0.000162
    17  H    0.000135   0.001144  -0.000136   0.007062  -0.001853   0.000134
              13         14         15         16         17
     1  C   -0.000011   0.007219   0.002593   0.017987  -0.002265
     2  C   -0.000845   0.007318  -0.001253  -0.009281  -0.009831
     3  C   -0.002025   0.037137  -0.000646   0.009022  -0.006077
     4  C    0.001398   0.037594   0.000470  -0.000217   0.000312
     5  C   -0.000100   0.037173  -0.000291  -0.026683   0.004748
     6  C    0.000229  -0.008385  -0.000021   0.017068  -0.001727
     7  O    0.000004   0.000602  -0.000016  -0.002127   0.000135
     8  C    0.000150   0.003842  -0.001987   0.013551   0.001144
     9  O   -0.000067  -0.005071   0.000128  -0.000019  -0.000136
    10  C    0.001058  -0.045704  -0.000113   0.002726   0.007062
    11  O    0.000026   0.000253  -0.000006   0.000640  -0.001853
    12  O   -0.000205   0.000495  -0.000014  -0.000162   0.000134
    13  H    0.005418   0.000628   0.000053  -0.000069   0.000008
    14  C    0.000628  -0.087544   0.002750   0.000040   0.000551
    15  N    0.000053   0.002750   0.007699   0.000078  -0.000039
    16  S   -0.000069   0.000040   0.000078  -0.021516   0.012552
    17  H    0.000008   0.000551  -0.000039   0.012552  -0.003451
 Mulliken charges and spin densities:
               1          2
     1  C    0.469285   0.172003
     2  C    0.449094  -0.106206
     3  C    1.818808   0.053681
     4  C    0.035804  -0.077414
     5  C    0.259311  -0.055093
     6  C    0.061396   0.945302
     7  O    0.020098  -0.001377
     8  C   -0.466182   0.014796
     9  O   -0.163054   0.071671
    10  C   -0.285359   0.005521
    11  O   -0.266963  -0.045460
    12  O   -0.019117   0.003778
    13  H    0.255613   0.005650
    14  C   -1.743477  -0.011101
    15  N   -0.147091   0.009388
    16  S   -0.378413   0.013591
    17  H    0.100248   0.001269
 Sum of Mulliken charges =  -0.00000   1.00000
 Mulliken charges and spin densities with hydrogens summed into heavy atoms:
               1          2
     1  C    0.469285   0.172003
     2  C    0.449094  -0.106206
     3  C    1.818808   0.053681
     4  C    0.291417  -0.071764
     5  C    0.259311  -0.055093
     6  C    0.061396   0.945302
     7  O    0.020098  -0.001377
     8  C   -0.466182   0.014796
     9  O   -0.163054   0.071671
    10  C   -0.285359   0.005521
    11  O   -0.266963  -0.045460
    12  O   -0.019117   0.003778
    14  C   -1.743477  -0.011101
    15  N   -0.147091   0.009388
    16  S   -0.278166   0.014859
 Electronic spatial extent (au):  <R**2>=           3068.9366
 Charge=             -0.0000 electrons
 Dipole moment (field-independent basis, Debye):
    X=             -0.2718    Y=             -2.6009    Z=             -0.1821  Tot=              2.6214
 Quadrupole moment (field-independent basis, Debye-Ang):
   XX=            -92.9165   YY=           -104.6958   ZZ=            -92.7705
   XY=            -13.9195   XZ=             -3.1402   YZ=             -3.1708
 Traceless Quadrupole moment (field-independent basis, Debye-Ang):
   XX=              3.8777   YY=             -7.9015   ZZ=              4.0238
   XY=            -13.9195   XZ=             -3.1402   YZ=             -3.1708
 Octapole moment (field-independent basis, Debye-Ang**2):
  XXX=              7.3546  YYY=            -18.8617  ZZZ=            -12.7018  XYY=            -21.7419
  XXY=            -49.5616  XXZ=            -14.6979  XZZ=             -3.9930  YZZ=             -1.3189
  YYZ=              7.7226  XYZ=            -10.5008
 Hexadecapole moment (field-independent basis, Debye-Ang**3):
 XXXX=          -2321.5732 YYYY=          -1715.8240 ZZZZ=           -258.2728 XXXY=           -190.1476
 XXXZ=            -53.5462 YYYX=            -36.4906 YYYZ=            -25.0938 ZZZX=             -9.4557
 ZZZY=             -5.4790 XXYY=           -670.9417 XXZZ=           -445.0999 YYZZ=           -316.4092
 XXYZ=            -38.4276 YYXZ=            -25.1854 ZZXY=            -23.4593
 N-N= 1.004853459734D+03 E-N=-4.592379208876D+03  KE= 1.095056148360D+03
 Unable to Open any file for archive entry.
 1\1\GINC-N1\SP\UB3LYP TD-FC\6-311++G(d,p)\C9H2N1O4S1(2)\HPCMGAC13\25-A
 ug-2025\0\\# td=(50-50,nstates=3) b3lyp/6-311++g(d,p) geom=connectivit
 y\\Title Card Required\\0,2\C,0,0.491845,0.460091,0.107897\C,0,-0.5658
 93,-0.420274,0.089906\C,0,-1.984251,-0.19862,-0.128034\C,0,-2.591318,-
 1.41095,-0.00728\C,0,1.914488,0.256058,-0.067034\C,0,2.456962,1.489579
 ,0.154198\O,0,1.652922,2.485696,0.422703\C,0,0.297895,1.913092,0.41001
 \O,0,-0.631594,2.574911,0.702933\C,0,-0.448783,-1.864622,0.412321\O,0,
 0.463765,-2.534778,0.80025\O,0,-1.74381,-2.408664,0.31908\H,0,-3.62349
 8,-1.685488,-0.160888\C,0,-2.664521,0.956529,-0.591085\N,0,-3.256916,1
 .855034,-1.010166\S,0,2.798108,-1.079098,-0.811232\H,0,2.283384,-2.056
 782,-0.033368\\Version=ES64L-G16RevC.02\State=2-A\HF=-1098.0512956\S2=
 0.807574\S2-1=0.\S2A=0.750626\RMSD=9.226e-09\PG=C01 [X(C9H2N1O4S1)]\\@
 The archive entry for this job was punched.


 QUANTUM MECHANICS IS BOHRING -- M.S. GORDON
 Job cpu time:       0 days  0 hours 53 minutes 41.0 seconds.
 Elapsed time:       0 days  0 hours  3 minutes 27.3 seconds.
 File lengths (MBytes):  RWF=    590 Int=      0 D2E=      0 Chk=     26 Scr=      2
 Normal termination of Gaussian 16 at Mon Aug 25 21:04:05 2025.
