 Entering Gaussian System, Link 0=g16
 Input=cn-sh2_E.gjf
 Output=cn-sh2_E.log
 Initial command:
 /hpc/softwares/Gaussian/g16/l1.exe "/hpc/home/hpcmgac13/pbs.13490.admin1.x8z/Gau-465348.inp" -scrdir="/hpc/home/hpcmgac13/pbs.13490.admin1.x8z/"
 Default linda workers: n1
 Default is to use   8 SMP processors on each worker.
 Entering Link 1 = /hpc/softwares/Gaussian/g16/l1.exe PID=    465349.
  
 Copyright (c) 1988-2021, Gaussian, Inc.  All Rights Reserved.
  
 This is part of the Gaussian(R) 16 program.  It is based on
 the Gaussian(R) 09 system (copyright 2009, Gaussian, Inc.),
 the Gaussian(R) 03 system (copyright 2003, Gaussian, Inc.),
 the Gaussian(R) 98 system (copyright 1998, Gaussian, Inc.),
 the Gaussian(R) 94 system (copyright 1995, Gaussian, Inc.),
 the Gaussian 92(TM) system (copyright 1992, Gaussian, Inc.),
 the Gaussian 90(TM) system (copyright 1990, Gaussian, Inc.),
 the Gaussian 88(TM) system (copyright 1988, Gaussian, Inc.),
 the Gaussian 86(TM) system (copyright 1986, Carnegie Mellon
 University), and the Gaussian 82(TM) system (copyright 1983,
 Carnegie Mellon University). Gaussian is a federally registered
 trademark of Gaussian, Inc.
  
 This software contains proprietary and confidential information,
 including trade secrets, belonging to Gaussian, Inc.
  
 This software is provided under written license and may be
 used, copied, transmitted, or stored only in accord with that
 written license.
  
 The following legend is applicable only to US Government
 contracts under FAR:
  
                    RESTRICTED RIGHTS LEGEND
  
 Use, reproduction and disclosure by the US Government is
 subject to restrictions as set forth in subparagraphs (a)
 and (c) of the Commercial Computer Software - Restricted
 Rights clause in FAR 52.227-19.
  
 Gaussian, Inc.
 340 Quinnipiac St., Bldg. 40, Wallingford CT 06492
  
  
 ---------------------------------------------------------------
 Warning -- This program may not be used in any manner that
 competes with the business of Gaussian, Inc. or will provide
 assistance to any competitor of Gaussian, Inc.  The licensee
 of this program is prohibited from giving any competitor of
 Gaussian, Inc. access to this program.  By using this program,
 the user acknowledges that Gaussian, Inc. is engaged in the
 business of creating and licensing software in the field of
 computational chemistry and represents and warrants to the
 licensee that it is not a competitor of Gaussian, Inc. and that
 it will not use this program in any manner prohibited above.
 ---------------------------------------------------------------
  

 Cite this work as:
 Gaussian 16, Revision C.02,
 M. J. Frisch, G. W. Trucks, H. B. Schlegel, G. E. Scuseria, 
 M. A. Robb, J. R. Cheeseman, G. Scalmani, V. Barone, 
 G. A. Petersson, H. Nakatsuji, X. Li, M. Caricato, A. V. Marenich, 
 J. Bloino, B. G. Janesko, R. Gomperts, B. Mennucci, H. P. Hratchian, 
 J. V. Ortiz, A. F. Izmaylov, J. L. Sonnenberg, D. Williams-Young, 
 F. Ding, F. Lipparini, F. Egidi, J. Goings, B. Peng, A. Petrone, 
 T. Henderson, D. Ranasinghe, V. G. Zakrzewski, J. Gao, N. Rega, 
 G. Zheng, W. Liang, M. Hada, M. Ehara, K. Toyota, R. Fukuda, 
 J. Hasegawa, M. Ishida, T. Nakajima, Y. Honda, O. Kitao, H. Nakai, 
 T. Vreven, K. Throssell, J. A. Montgomery, Jr., J. E. Peralta, 
 F. Ogliaro, M. J. Bearpark, J. J. Heyd, E. N. Brothers, K. N. Kudin, 
 V. N. Staroverov, T. A. Keith, R. Kobayashi, J. Normand, 
 K. Raghavachari, A. P. Rendell, J. C. Burant, S. S. Iyengar, 
 J. Tomasi, M. Cossi, J. M. Millam, M. Klene, C. Adamo, R. Cammi, 
 J. W. Ochterski, R. L. Martin, K. Morokuma, O. Farkas, 
 J. B. Foresman, and D. J. Fox, Gaussian, Inc., Wallingford CT, 2019.
 
 ******************************************
 Gaussian 16:  ES64L-G16RevC.02  7-Dec-2021
                26-Aug-2025 
 ******************************************
 SetLPE:    new flags="-opt 'Tsnet.Node.lindarsharg: ssh'  -nodelist 'n1' -env GAUSS_MDEF=2147483648 -env GAUSS_EXEDIR="/hpc/softwares/Gaussian/g16/bsd:/hpc/softwares/Gaussian/g16""
 Will use up to    1 processors via Linda.
 ------------------------------------------------------------
 # td=(50-50,nstates=3) b3lyp/6-311++g(d,p) geom=connectivity
 ------------------------------------------------------------
 1/38=1,57=2,172=1/1;
 2/12=2,17=6,18=5,40=1/2;
 3/5=4,6=6,7=1111,11=9,25=1,30=1,74=-5/1,2,3,8;
 4//1;
 5/5=2,38=5/2;
 8/6=1,10=2,108=3/1;
 9/41=3,42=1,48=2,70=2/14;
 6/7=2,8=2,9=2,10=2/1;
 99/5=1,9=1/99;
 ----
 CNSH
 ----
 Symbolic Z-matrix:
 Charge =  0 Multiplicity = 1
 C                    -0.60629  -0.41911   0.07662 
 C                     0.47113   0.42623   0.09176 
 C                     1.89095   0.20264  -0.05332 
 C                     2.48084   1.41595   0.11319 
 C                    -2.0248   -0.15279  -0.10647 
 C                    -2.66102  -1.3502   -0.008 
 O                    -1.83789  -2.38229   0.27969 
 C                    -0.52812  -1.87872   0.36472 
 O                     0.36736  -2.58167   0.72943 
 C                     0.32987   1.89556   0.3874 
 O                    -0.62068   2.54467   0.68651 
 O                     1.61964   2.43738   0.37433 
 H                     3.52049   1.69076   0.01948 
 S                     2.79711  -1.15794  -0.73796 
 H                     2.3074   -2.11297   0.08004 
 N                    -3.29492   1.9193   -0.9478 
 C                    -2.69297   1.02078  -0.54285 
 H                    -3.70209  -1.59276  -0.15556 
 
                          Input orientation:                          
 ---------------------------------------------------------------------
 Center     Atomic      Atomic             Coordinates (Angstroms)
 Number     Number       Type             X           Y           Z
 ---------------------------------------------------------------------
      1          6           0       -0.606291   -0.419110    0.076624
      2          6           0        0.471125    0.426231    0.091758
      3          6           0        1.890947    0.202642   -0.053317
      4          6           0        2.480843    1.415953    0.113193
      5          6           0       -2.024799   -0.152790   -0.106467
      6          6           0       -2.661017   -1.350201   -0.007998
      7          8           0       -1.837890   -2.382287    0.279688
      8          6           0       -0.528122   -1.878716    0.364722
      9          8           0        0.367357   -2.581672    0.729432
     10          6           0        0.329872    1.895560    0.387396
     11          8           0       -0.620677    2.544670    0.686509
     12          8           0        1.619638    2.437381    0.374325
     13          1           0        3.520486    1.690764    0.019477
     14         16           0        2.797105   -1.157936   -0.737960
     15          1           0        2.307399   -2.112971    0.080036
     16          7           0       -3.294920    1.919301   -0.947801
     17          6           0       -2.692967    1.020780   -0.542847
     18          1           0       -3.702088   -1.592760   -0.155563
 ---------------------------------------------------------------------
                    Distance matrix (angstroms):
                    1          2          3          4          5
     1  C    0.000000
     2  C    1.369546   0.000000
     3  C    2.576753   1.444622   0.000000
     4  C    3.591544   2.240307   1.359348   0.000000
     5  C    1.454859   2.569863   3.932203   4.775983   0.000000
     6  C    2.257430   3.602218   4.809756   5.839950   1.359508
     7  O    2.326400   3.640692   4.549393   5.753764   2.270398
     8  C    1.489819   2.527011   3.218494   4.469002   2.332570
     9  O    2.459842   3.076504   3.269010   4.563724   3.510072
    10  C    2.516084   1.505418   2.344601   2.220785   3.159765
    11  O    3.025914   2.456327   3.512932   3.349943   3.142715
    12  O    3.633583   2.333163   2.291407   1.361315   4.496895
    13  H    4.635205   3.301950   2.207986   1.079426   5.845061
    14  S    3.576663   2.933973   1.772295   2.729357   4.965870
    15  H    3.370277   3.133622   2.356540   3.533339   4.758680
    16  N    3.707605   4.182468   5.535362   5.893938   2.571889
    17  C    2.609836   3.281416   4.682014   5.230187   1.419205
    18  H    3.318934   4.642542   5.875029   6.881368   2.211159
                    6          7          8          9         10
     6  C    0.000000
     7  O    1.351112   0.000000
     8  C    2.228787   1.405812   0.000000
     9  O    3.351324   2.259455   1.195426   0.000000
    10  C    4.431334   4.796954   3.870637   4.490434   0.000000
    11  O    4.451443   5.091367   4.436041   5.220865   1.189267
    12  O    5.728521   5.932340   4.820960   5.185094   1.399013
    13  H    6.889064   6.735699   5.408476   5.357235   3.218280
    14  S    5.510073   4.900798   3.576670   3.175522   4.083810
    15  H    5.027397   4.158824   2.859388   2.098847   4.480335
    16  N    3.460449   4.704607   4.878813   6.040210   3.862956
    17  C    2.430768   3.603968   3.730591   4.895093   3.281486
    18  H    1.079092   2.070756   3.229013   4.280367   5.359093
                   11         12         13         14         15
    11  O    0.000000
    12  O    2.264505   0.000000
    13  H    4.280575   2.072819   0.000000
    14  S    5.236376   3.943338   3.035141   0.000000
    15  H    5.534895   4.611434   3.992950   1.349452   0.000000
    16  N    3.195877   5.115594   6.887497   6.828337   6.978656
    17  C    2.850955   4.631039   6.274718   5.909802   5.933973
    18  H    5.227093   6.696535   7.935852   6.539707   6.036560
                   16         17         18
    16  N    0.000000
    17  C    1.154849   0.000000
    18  H    3.623258   2.828234   0.000000
 Stoichiometry    C9H3NO4S
 Framework group  C1[X(C9H3NO4S)]
 Deg. of freedom    48
 Full point group                 C1      NOp   1
 Largest Abelian subgroup         C1      NOp   1
 Largest concise Abelian subgroup C1      NOp   1
                         Standard orientation:                         
 ---------------------------------------------------------------------
 Center     Atomic      Atomic             Coordinates (Angstroms)
 Number     Number       Type             X           Y           Z
 ---------------------------------------------------------------------
      1          6           0        0.606291   -0.419110   -0.076624
      2          6           0       -0.471125    0.426231   -0.091758
      3          6           0       -1.890947    0.202643    0.053317
      4          6           0       -2.480842    1.415954   -0.113193
      5          6           0        2.024799   -0.152791    0.106467
      6          6           0        2.661016   -1.350202    0.007998
      7          8           0        1.837889   -2.382288   -0.279688
      8          6           0        0.528121   -1.878716   -0.364722
      9          8           0       -0.367358   -2.581672   -0.729432
     10          6           0       -0.329871    1.895560   -0.387396
     11          8           0        0.620678    2.544670   -0.686509
     12          8           0       -1.619637    2.437382   -0.374325
     13          1           0       -3.520485    1.690766   -0.019477
     14         16           0       -2.797105   -1.157935    0.737960
     15          1           0       -2.307400   -2.112970   -0.080036
     16          7           0        3.294921    1.919300    0.947801
     17          6           0        2.692968    1.020779    0.542847
     18          1           0        3.702087   -1.592762    0.155563
 ---------------------------------------------------------------------
 Rotational constants (GHZ):           0.7157161           0.5347945           0.3287811
 Standard basis: 6-311++G(d,p) (5D, 7F)
 There are   374 symmetry adapted cartesian basis functions of A   symmetry.
 There are   359 symmetry adapted basis functions of A   symmetry.
   359 basis functions,   581 primitive gaussians,   374 cartesian basis functions
    56 alpha electrons       56 beta electrons
       nuclear repulsion energy      1021.8668622140 Hartrees.
 NAtoms=   18 NActive=   18 NUniq=   18 SFac= 1.00D+00 NAtFMM=   60 NAOKFM=F Big=F
 Integral buffers will be    131072 words long.
 Regular integral format.
 Two-electron integral symmetry is turned on.
 One-electron integrals computed using PRISM.
 NBasis=   359 RedAO= T EigKep=  1.82D-06  NBF=   359
 NBsUse=   357 1.00D-06 EigRej=  5.68D-07 NBFU=   357
 ExpMin= 3.60D-02 ExpMax= 9.34D+04 ExpMxC= 3.17D+03 IAcc=3 IRadAn=         5 AccDes= 0.00D+00
 Harris functional with IExCor=  402 and IRadAn=       5 diagonalized for initial guess.
 HarFok:  IExCor=  402 AccDes= 0.00D+00 IRadAn=         5 IDoV= 1 UseB2=F ITyADJ=14
 ICtDFT=  3500011 ScaDFX=  1.000000  1.000000  1.000000  1.000000
 FoFCou: FMM=F IPFlag=           0 FMFlag=      100000 FMFlg1=           0
         NFxFlg=           0 DoJE=T BraDBF=F KetDBF=T FulRan=T
         wScrn=  0.000000 ICntrl=       500 IOpCl=  0 I1Cent=   200000004 NGrid=           0
         NMat0=    1 NMatS0=      1 NMatT0=    0 NMatD0=    1 NMtDS0=    0 NMtDT0=    0
 Petite list used in FoFCou.
 Requested convergence on RMS density matrix=1.00D-08 within 128 cycles.
 Requested convergence on MAX density matrix=1.00D-06.
 Requested convergence on             energy=1.00D-06.
 No special actions if energy rises.
 EnCoef did     1 forward-backward iterations
 SCF Done:  E(RB3LYP) =  -1098.74819640     A.U. after   17 cycles
            NFock= 17  Conv=0.85D-08     -V/T= 2.0028
 DoSCS=F DFT=T ScalE2(SS,OS)=  1.000000  1.000000
 ExpMin= 3.60D-02 ExpMax= 9.34D+04 ExpMxC= 3.17D+03 IAcc=3 IRadAn=         5 AccDes= 0.00D+00
 HarFok:  IExCor=  205 AccDes= 0.00D+00 IRadAn=         5 IDoV=-2 UseB2=F ITyADJ=14
 ICtDFT= 12500011 ScaDFX=  1.000000  1.000000  1.000000  1.000000
 Range of M.O.s used for correlation:    20   357
 NBasis=   359 NAE=    56 NBE=    56 NFC=    19 NFV=     0
 NROrb=    338 NOA=    37 NOB=    37 NVA=   301 NVB=   301

 **** Warning!!: The largest alpha MO coefficient is  0.12347860D+03


 **** Warning!!: The smallest alpha delta epsilon is  0.93316446D-01

 Orbital symmetries:
       Occupied  (A) (A) (A) (A) (A) (A) (A) (A) (A) (A) (A) (A)
                 (A) (A) (A) (A) (A) (A) (A) (A) (A) (A) (A) (A)
                 (A) (A) (A) (A) (A) (A) (A) (A) (A) (A) (A) (A)
                 (A) (A) (A) (A) (A) (A) (A) (A) (A) (A) (A) (A)
                 (A) (A) (A) (A) (A) (A) (A) (A)
       Virtual   (A) (A) (A) (A) (A) (A) (A) (A) (A) (A) (A) (A)
                 (A) (A) (A) (A) (A) (A) (A) (A) (A) (A) (A) (A)
                 (A) (A) (A) (A) (A) (A) (A) (A) (A) (A) (A) (A)
                 (A) (A) (A) (A) (A) (A) (A) (A) (A) (A) (A) (A)
                 (A) (A) (A) (A) (A) (A) (A) (A) (A) (A) (A) (A)
                 (A) (A) (A) (A) (A) (A) (A) (A) (A) (A) (A) (A)
                 (A) (A) (A) (A) (A) (A) (A) (A) (A) (A) (A) (A)
                 (A) (A) (A) (A) (A) (A) (A) (A) (A) (A) (A) (A)
                 (A) (A) (A) (A) (A) (A) (A) (A) (A) (A) (A) (A)
                 (A) (A) (A) (A) (A) (A) (A) (A) (A) (A) (A) (A)
                 (A) (A) (A) (A) (A) (A) (A) (A) (A) (A) (A) (A)
                 (A) (A) (A) (A) (A) (A) (A) (A) (A) (A) (A) (A)
                 (A) (A) (A) (A) (A) (A) (A) (A) (A) (A) (A) (A)
                 (A) (A) (A) (A) (A) (A) (A) (A) (A) (A) (A) (A)
                 (A) (A) (A) (A) (A) (A) (A) (A) (A) (A) (A) (A)
                 (A) (A) (A) (A) (A) (A) (A) (A) (A) (A) (A) (A)
                 (A) (A) (A) (A) (A) (A) (A) (A) (A) (A) (A) (A)
                 (A) (A) (A) (A) (A) (A) (A) (A) (A) (A) (A) (A)
                 (A) (A) (A) (A) (A) (A) (A) (A) (A) (A) (A) (A)
                 (A) (A) (A) (A) (A) (A) (A) (A) (A) (A) (A) (A)
                 (A) (A) (A) (A) (A) (A) (A) (A) (A) (A) (A) (A)
                 (A) (A) (A) (A) (A) (A) (A) (A) (A) (A) (A) (A)
                 (A) (A) (A) (A) (A) (A) (A) (A) (A) (A) (A) (A)
                 (A) (A) (A) (A) (A) (A) (A) (A) (A) (A) (A) (A)
                 (A) (A) (A) (A) (A) (A) (A) (A) (A) (A) (A) (A)
                 (A)
    24 initial guesses have been made.
 Convergence on wavefunction:    0.001000000000000
 Iteration     1 Dimension    24 NMult     0 NNew     24
 CISAX will form    24 AO SS matrices at one time.
 New state      1 was old state      2
 New state      2 was old state      4
 New state      3 was old state      1
 New state      4 was old state      6
 New state      5 was old state      3
 New state      6 was old state      8
 New state      8 was old state     10
 New state      9 was old state      5
 New state     10 was old state     12
 New state     11 was old state      9
 New state     12 was old state     16
 Vector   6 SDiff=5.05D+00 TDiff=1.21D+01 assumed to be singlet.
 Vector  12 SDiff=4.74D+00 TDiff=8.01D+00 assumed to be singlet.
 Iteration     2 Dimension    36 NMult    24 NNew     12
 New state      2 was old state      3
 New state      3 was old state      2
 New state      4 was old state      5
 New state      5 was old state      4
 New state      6 was old state      7
 Iteration     3 Dimension    48 NMult    36 NNew     12
 Iteration     4 Dimension    60 NMult    48 NNew     12
 Iteration     5 Dimension    72 NMult    60 NNew     12
 Iteration     6 Dimension    76 NMult    72 NNew      4
 ***********************************************************************
 Excited states from <AA,BB:AA,BB> singles matrix:
 ***********************************************************************
 
 Ground to excited state transition densities written to RWF  633
 Ground to excited state transition electric dipole moments (Au):
       state          X           Y           Z        Dip. S.      Osc.
         1        -0.0000     -0.0000      0.0000      0.0000      0.0000
         2         0.6590     -0.6517      0.0219      0.8595      0.0437
         3         0.0000     -0.0000      0.0000      0.0000      0.0000
         4        -1.0679      0.9496     -0.0038      2.0421      0.1445
         5        -0.0000      0.0000     -0.0000      0.0000      0.0000
         6        -0.2900      0.1492     -0.0146      0.1066      0.0087
 Ground to excited state transition velocity dipole moments (Au):
       state          X           Y           Z        Dip. S.      Osc.
         1         0.0000      0.0000      0.0000      0.0000      0.0000
         2        -0.0491      0.0517     -0.0033      0.0051      0.0445
         3        -0.0000      0.0000     -0.0000      0.0000      0.0000
         4         0.1136     -0.1031     -0.0001      0.0235      0.1477
         5         0.0000      0.0000      0.0000      0.0000      0.0000
         6         0.0357     -0.0193      0.0025      0.0017      0.0090
 Ground to excited state transition magnetic dipole moments (Au):
       state          X           Y           Z
         1         0.0000     -0.0000     -0.0000
         2        -0.0339     -0.1662     -0.1370
         3        -0.0000      0.0000     -0.0000
         4         0.0314      0.0786     -0.2762
         5         0.0000     -0.0000     -0.0000
         6        -0.2928     -0.2528      0.1371
 Ground to excited state transition velocity quadrupole moments (Au):
       state          XX          YY          ZZ          XY          XZ          YZ
         1        -0.0000      0.0000     -0.0000      0.0000      0.0000      0.0000
         2         0.0289      0.0172     -0.0049     -0.0499     -0.0050     -0.0601
         3        -0.0000      0.0000      0.0000      0.0000      0.0000      0.0000
         4         0.1390      0.0390     -0.0063     -0.0857      0.0514      0.1297
         5         0.0000      0.0000      0.0000      0.0000      0.0000      0.0000
         6        -0.0477     -0.0260      0.0042      0.0169      0.0106      0.0400
 <0|del|b> * <b|rxdel|0> + <0|del|b> * <b|delr+rdel|0>
 Rotatory Strengths (R) in cgs (10**-40 erg-esu-cm/Gauss)
       state          XX          YY          ZZ    R(velocity)    E-M Angle
         1        -0.0000      0.0000     -0.0000     -0.0000       90.00
         2       -35.7465     22.7062    -46.9377    -19.9927      114.59
         3        -0.0000      0.0000      0.0000      0.0000       90.00
         4        -9.2711     60.9677    -81.7929    -10.0321       95.85
         5        -0.0000     -0.0000      0.0000     -0.0000       90.00
         6        15.8256    -25.2678    -20.8611    -10.1011      108.27
 1/2[<0|r|b>*<b|rxdel|0> + (<0|rxdel|b>*<b|r|0>)*]
 Rotatory Strengths (R) in cgs (10**-40 erg-esu-cm/Gauss)
       state          XX          YY          ZZ     R(length)
         1         0.0000     -0.0000      0.0000      0.0000
         2        15.8131    -76.5869      2.1233    -19.5502
         3         0.0000      0.0000      0.0000      0.0000
         4        23.7089    -52.7859     -0.7338     -9.9369
         5         0.0000      0.0000     -0.0000      0.0000
         6       -60.0271     26.6790      1.4172    -10.6436
  1/2[<0|del|b>*<b|r|0> + (<0|r|b>*<b|del|0>)*] (Au)
       state          X           Y           Z        Dip. S.   Osc.(frdel)
         1        -0.0000     -0.0000      0.0000      0.0000      0.0000
         2        -0.0324     -0.0337     -0.0001      0.0661      0.0441
         3        -0.0000     -0.0000     -0.0000      0.0000      0.0000
         4        -0.1213     -0.0979      0.0000      0.2191      0.1461
         5        -0.0000      0.0000     -0.0000     -0.0000     -0.0000
         6        -0.0104     -0.0029     -0.0000      0.0133      0.0089

 Excitation energies and oscillator strengths:
 
 Excited State   1:      Triplet-A      0.8875 eV 1396.94 nm  f=0.0000  <S**2>=2.000
      55 -> 57        -0.23602
      56 -> 57         0.69335
      55 <- 57        -0.10578
      56 <- 57         0.20665
 This state for optimization and/or second-order correction.
 Total Energy, E(TD-HF/TD-DFT) =  -1098.71557985    
 Copying the excited state density for this state as the 1-particle RhoCI density.
 
 Excited State   2:      Singlet-A      2.0771 eV  596.92 nm  f=0.0437  <S**2>=0.000
      55 -> 57         0.28911
      56 -> 57         0.64448
 
 Excited State   3:      Triplet-A      2.1118 eV  587.11 nm  f=0.0000  <S**2>=2.000
      55 -> 57         0.65749
      56 -> 57         0.21492
 
 Excited State   4:      Singlet-A      2.8889 eV  429.18 nm  f=0.1445  <S**2>=0.000
      54 -> 57        -0.12180
      55 -> 57         0.63384
      56 -> 57        -0.27755
 
 Excited State   5:      Triplet-A      2.9890 eV  414.81 nm  f=0.0000  <S**2>=2.000
      53 -> 57         0.39437
      54 -> 57         0.55586
 
 Excited State   6:      Singlet-A      3.3264 eV  372.73 nm  f=0.0087  <S**2>=0.000
      53 -> 57         0.56916
      54 -> 57         0.40319
 SavETr:  write IOETrn=   770 NScale= 10 NData=  16 NLR=1 NState=    6 LETran=     118.

 **********************************************************************

            Population analysis using the SCF Density.

 **********************************************************************

 Orbital symmetries:
       Occupied  (A) (A) (A) (A) (A) (A) (A) (A) (A) (A) (A) (A)
                 (A) (A) (A) (A) (A) (A) (A) (A) (A) (A) (A) (A)
                 (A) (A) (A) (A) (A) (A) (A) (A) (A) (A) (A) (A)
                 (A) (A) (A) (A) (A) (A) (A) (A) (A) (A) (A) (A)
                 (A) (A) (A) (A) (A) (A) (A) (A)
       Virtual   (A) (A) (A) (A) (A) (A) (A) (A) (A) (A) (A) (A)
                 (A) (A) (A) (A) (A) (A) (A) (A) (A) (A) (A) (A)
                 (A) (A) (A) (A) (A) (A) (A) (A) (A) (A) (A) (A)
                 (A) (A) (A) (A) (A) (A) (A) (A) (A) (A) (A) (A)
                 (A) (A) (A) (A) (A) (A) (A) (A) (A) (A) (A) (A)
                 (A) (A) (A) (A) (A) (A) (A) (A) (A) (A) (A) (A)
                 (A) (A) (A) (A) (A) (A) (A) (A) (A) (A) (A) (A)
                 (A) (A) (A) (A) (A) (A) (A) (A) (A) (A) (A) (A)
                 (A) (A) (A) (A) (A) (A) (A) (A) (A) (A) (A) (A)
                 (A) (A) (A) (A) (A) (A) (A) (A) (A) (A) (A) (A)
                 (A) (A) (A) (A) (A) (A) (A) (A) (A) (A) (A) (A)
                 (A) (A) (A) (A) (A) (A) (A) (A) (A) (A) (A) (A)
                 (A) (A) (A) (A) (A) (A) (A) (A) (A) (A) (A) (A)
                 (A) (A) (A) (A) (A) (A) (A) (A) (A) (A) (A) (A)
                 (A) (A) (A) (A) (A) (A) (A) (A) (A) (A) (A) (A)
                 (A) (A) (A) (A) (A) (A) (A) (A) (A) (A) (A) (A)
                 (A) (A) (A) (A) (A) (A) (A) (A) (A) (A) (A) (A)
                 (A) (A) (A) (A) (A) (A) (A) (A) (A) (A) (A) (A)
                 (A) (A) (A) (A) (A) (A) (A) (A) (A) (A) (A) (A)
                 (A) (A) (A) (A) (A) (A) (A) (A) (A) (A) (A) (A)
                 (A) (A) (A) (A) (A) (A) (A) (A) (A) (A) (A) (A)
                 (A) (A) (A) (A) (A) (A) (A) (A) (A) (A) (A) (A)
                 (A) (A) (A) (A) (A) (A) (A) (A) (A) (A) (A) (A)
                 (A) (A) (A) (A) (A) (A) (A) (A) (A) (A) (A) (A)
                 (A) (A) (A) (A) (A) (A) (A) (A) (A) (A) (A) (A)
                 (A)
 The electronic state is 1-A.
 Alpha  occ. eigenvalues --  -88.88150 -19.23710 -19.22667 -19.17447 -19.17010
 Alpha  occ. eigenvalues --  -14.33376 -10.36041 -10.35352 -10.30592 -10.29428
 Alpha  occ. eigenvalues --  -10.26904 -10.26839 -10.26164 -10.25616 -10.23377
 Alpha  occ. eigenvalues --   -7.96831  -5.93245  -5.92822  -5.92205  -1.18078
 Alpha  occ. eigenvalues --   -1.17163  -1.10171  -1.09650  -0.93554  -0.90695
 Alpha  occ. eigenvalues --   -0.86831  -0.81334  -0.77100  -0.75359  -0.70792
 Alpha  occ. eigenvalues --   -0.67900  -0.61532  -0.60754  -0.58227  -0.55797
 Alpha  occ. eigenvalues --   -0.53229  -0.52908  -0.52138  -0.50570  -0.49389
 Alpha  occ. eigenvalues --   -0.47531  -0.47307  -0.44736  -0.43866  -0.42723
 Alpha  occ. eigenvalues --   -0.41508  -0.40497  -0.39568  -0.38527  -0.36793
 Alpha  occ. eigenvalues --   -0.36372  -0.34628  -0.32553  -0.31993  -0.28351
 Alpha  occ. eigenvalues --   -0.25506
 Alpha virt. eigenvalues --   -0.16174  -0.06448  -0.03471  -0.02311  -0.01786
 Alpha virt. eigenvalues --   -0.00845  -0.00373  -0.00130   0.01095   0.01267
 Alpha virt. eigenvalues --    0.02234   0.02529   0.03862   0.04275   0.04691
 Alpha virt. eigenvalues --    0.05190   0.06026   0.06410   0.06891   0.07655
 Alpha virt. eigenvalues --    0.07721   0.08393   0.08963   0.09209   0.09538
 Alpha virt. eigenvalues --    0.09567   0.09814   0.10230   0.10575   0.11425
 Alpha virt. eigenvalues --    0.11822   0.12602   0.12837   0.13789   0.14246
 Alpha virt. eigenvalues --    0.14906   0.14976   0.15337   0.15531   0.16181
 Alpha virt. eigenvalues --    0.16958   0.17520   0.17737   0.18058   0.18974
 Alpha virt. eigenvalues --    0.19293   0.19604   0.19928   0.20761   0.22567
 Alpha virt. eigenvalues --    0.23014   0.23424   0.23962   0.24613   0.24891
 Alpha virt. eigenvalues --    0.25306   0.25784   0.25859   0.26282   0.26799
 Alpha virt. eigenvalues --    0.27062   0.27238   0.27894   0.28341   0.28524
 Alpha virt. eigenvalues --    0.28542   0.29396   0.29738   0.30560   0.31133
 Alpha virt. eigenvalues --    0.31453   0.31618   0.32859   0.33410   0.34112
 Alpha virt. eigenvalues --    0.34362   0.34914   0.35317   0.36193   0.37516
 Alpha virt. eigenvalues --    0.37991   0.38695   0.39637   0.41021   0.43809
 Alpha virt. eigenvalues --    0.44485   0.45414   0.47609   0.48876   0.50990
 Alpha virt. eigenvalues --    0.53236   0.53738   0.54168   0.55648   0.56812
 Alpha virt. eigenvalues --    0.58018   0.58688   0.59992   0.60127   0.61026
 Alpha virt. eigenvalues --    0.61386   0.62388   0.63276   0.64812   0.65954
 Alpha virt. eigenvalues --    0.67903   0.69849   0.71451   0.72172   0.73052
 Alpha virt. eigenvalues --    0.73932   0.75505   0.75921   0.76606   0.77012
 Alpha virt. eigenvalues --    0.78948   0.79640   0.81017   0.82454   0.84483
 Alpha virt. eigenvalues --    0.85436   0.86659   0.88467   0.88800   0.89677
 Alpha virt. eigenvalues --    0.91216   0.92501   0.93033   0.94888   0.96805
 Alpha virt. eigenvalues --    0.97259   0.97510   0.99685   1.00413   1.01308
 Alpha virt. eigenvalues --    1.02282   1.03768   1.04541   1.05778   1.08798
 Alpha virt. eigenvalues --    1.09716   1.11283   1.12524   1.13239   1.15794
 Alpha virt. eigenvalues --    1.16356   1.16905   1.18744   1.18905   1.19985
 Alpha virt. eigenvalues --    1.20836   1.21441   1.21968   1.23289   1.24089
 Alpha virt. eigenvalues --    1.26143   1.27305   1.31305   1.32240   1.35021
 Alpha virt. eigenvalues --    1.36997   1.37983   1.41928   1.42057   1.46324
 Alpha virt. eigenvalues --    1.49399   1.50484   1.51721   1.55080   1.56732
 Alpha virt. eigenvalues --    1.57533   1.60465   1.63477   1.64115   1.65486
 Alpha virt. eigenvalues --    1.66931   1.67971   1.69760   1.70807   1.72215
 Alpha virt. eigenvalues --    1.74718   1.75989   1.76609   1.78090   1.79937
 Alpha virt. eigenvalues --    1.80447   1.82245   1.85070   1.88529   1.91433
 Alpha virt. eigenvalues --    1.92584   1.94654   1.96779   1.97454   1.97745
 Alpha virt. eigenvalues --    2.00405   2.02181   2.03288   2.04360   2.08481
 Alpha virt. eigenvalues --    2.10694   2.11788   2.15069   2.20913   2.23222
 Alpha virt. eigenvalues --    2.29577   2.30257   2.33508   2.41211   2.49802
 Alpha virt. eigenvalues --    2.55319   2.58377   2.60671   2.61950   2.62860
 Alpha virt. eigenvalues --    2.63652   2.66476   2.67657   2.68548   2.71512
 Alpha virt. eigenvalues --    2.74936   2.78442   2.80373   2.82807   2.83759
 Alpha virt. eigenvalues --    2.84422   2.86097   2.89446   2.90292   2.91307
 Alpha virt. eigenvalues --    2.94011   2.95950   2.97530   2.98058   2.98959
 Alpha virt. eigenvalues --    3.00428   3.04145   3.07110   3.08479   3.09297
 Alpha virt. eigenvalues --    3.10506   3.11838   3.12011   3.13248   3.17083
 Alpha virt. eigenvalues --    3.23876   3.30676   3.33010   3.34402   3.35043
 Alpha virt. eigenvalues --    3.37897   3.44344   3.50258   3.56496   3.57311
 Alpha virt. eigenvalues --    3.65433   3.67735   3.73519   3.81794   3.94370
 Alpha virt. eigenvalues --    3.96150   3.98585   4.01758   4.02741   4.03947
 Alpha virt. eigenvalues --    4.06140   4.25961   4.30312   4.43905   4.62186
 Alpha virt. eigenvalues --    4.92943   4.94122   5.01383   5.02153   5.15061
 Alpha virt. eigenvalues --    5.17320   5.33995   5.38080   5.63762   5.65096
 Alpha virt. eigenvalues --    5.83334   5.83876   7.95646  17.30778  17.38642
 Alpha virt. eigenvalues --   17.48222  23.51009  23.65243  23.75701  23.82737
 Alpha virt. eigenvalues --   23.83159  24.04604  24.07541  24.10361  24.48358
 Alpha virt. eigenvalues --   35.87517  49.82882  49.84248  49.99912  50.02181
 Alpha virt. eigenvalues --  189.13021
          Condensed to atoms (all electrons):
               1          2          3          4          5          6
     1  C   10.011382  -0.020204   0.394856   0.304508  -1.846383   0.358878
     2  C   -0.020204  11.223445  -4.470882   1.580802   0.383609  -0.176204
     3  C    0.394856  -4.470882  17.975511  -5.272120  -2.060779   0.628732
     4  C    0.304508   1.580802  -5.272120  11.321381   0.617011  -0.227285
     5  C   -1.846383   0.383609  -2.060779   0.617011  17.584623   0.120268
     6  C    0.358878  -0.176204   0.628732  -0.227285   0.120268   8.439777
     7  O   -0.055119  -0.016052   0.037561  -0.000994   0.018488   0.099984
     8  C   -3.042083   0.409254  -2.380226   0.213930   0.253428  -1.330900
     9  O    0.026018  -0.064768   0.106874   0.021613  -0.027584   0.043042
    10  C   -0.460145  -3.005130   1.937882  -2.548853  -1.791492   0.185834
    11  O    0.021026  -0.041906  -0.209543   0.079808   0.097761   0.005960
    12  O    0.025854  -0.068182  -0.079826  -0.076187   0.045044   0.002793
    13  H   -0.002390  -0.000159  -0.247990   0.645571   0.004127  -0.001316
    14  S   -0.281508  -0.209588   0.381208  -0.874693  -0.315784   0.038107
    15  H    0.010788  -0.090255   0.055421   0.044540   0.008986   0.011694
    16  N   -0.032070  -0.047670  -0.001036   0.002285   0.665529   0.136385
    17  C    0.030645  -0.005345  -0.834628   0.128483  -9.483240  -2.781711
    18  H    0.022802   0.006240   0.012330   0.000695   0.006263   0.385590
               7          8          9         10         11         12
     1  C   -0.055119  -3.042083   0.026018  -0.460145   0.021026   0.025854
     2  C   -0.016052   0.409254  -0.064768  -3.005130  -0.041906  -0.068182
     3  C    0.037561  -2.380226   0.106874   1.937882  -0.209543  -0.079826
     4  C   -0.000994   0.213930   0.021613  -2.548853   0.079808  -0.076187
     5  C    0.018488   0.253428  -0.027584  -1.791492   0.097761   0.045044
     6  C    0.099984  -1.330900   0.043042   0.185834   0.005960   0.002793
     7  O    8.043115   0.075417  -0.054977   0.003000  -0.000460   0.000081
     8  C    0.075417  10.602407   0.205188   0.618826   0.015667   0.007610
     9  O   -0.054977   0.205188   8.046014  -0.012602  -0.000080  -0.000409
    10  C    0.003000   0.618826  -0.012602  10.579379   0.238707   0.211404
    11  O   -0.000460   0.015667  -0.000080   0.238707   8.018777  -0.060551
    12  O    0.000081   0.007610  -0.000409   0.211404  -0.060551   8.108673
    13  H   -0.000200   0.004556   0.000270  -0.059658  -0.000737  -0.059624
    14  S   -0.003414   0.022082  -0.011627   0.421663  -0.001980  -0.016949
    15  H    0.003052  -0.024622  -0.019755  -0.015782   0.000133   0.003445
    16  N   -0.000594   0.033244  -0.000337   0.023902  -0.003235  -0.000836
    17  C   -0.065966   0.585129   0.019802   0.171841   0.050236  -0.000991
    18  H   -0.061228  -0.007446   0.000184  -0.000899  -0.000457  -0.000112
              13         14         15         16         17         18
     1  C   -0.002390  -0.281508   0.010788  -0.032070   0.030645   0.022802
     2  C   -0.000159  -0.209588  -0.090255  -0.047670  -0.005345   0.006240
     3  C   -0.247990   0.381208   0.055421  -0.001036  -0.834628   0.012330
     4  C    0.645571  -0.874693   0.044540   0.002285   0.128483   0.000695
     5  C    0.004127  -0.315784   0.008986   0.665529  -9.483240   0.006263
     6  C   -0.001316   0.038107   0.011694   0.136385  -2.781711   0.385590
     7  O   -0.000200  -0.003414   0.003052  -0.000594  -0.065966  -0.061228
     8  C    0.004556   0.022082  -0.024622   0.033244   0.585129  -0.007446
     9  O    0.000270  -0.011627  -0.019755  -0.000337   0.019802   0.000184
    10  C   -0.059658   0.421663  -0.015782   0.023902   0.171841  -0.000899
    11  O   -0.000737  -0.001980   0.000133  -0.003235   0.050236  -0.000457
    12  O   -0.059624  -0.016949   0.003445  -0.000836  -0.000991  -0.000112
    13  H    0.493270  -0.020222   0.000615   0.000082  -0.001615   0.000075
    14  S   -0.020222  17.087695   0.201651   0.000170   0.018586  -0.000774
    15  H    0.000615   0.201651   0.735142   0.000209  -0.020660   0.000451
    16  N    0.000082   0.000170   0.000209   6.902505  -0.528148   0.003673
    17  C   -0.001615   0.018586  -0.020660  -0.528148  20.504322  -0.093171
    18  H    0.000075  -0.000774   0.000451   0.003673  -0.093171   0.468365
 Mulliken charges:
               1
     1  C    0.533145
     2  C    0.612994
     3  C    0.026657
     4  C    0.039506
     5  C    1.720125
     6  C    0.060373
     7  O   -0.021693
     8  C   -0.261461
     9  O   -0.276865
    10  C   -0.497876
    11  O   -0.209126
    12  O   -0.041236
    13  H    0.245346
    14  S   -0.434625
    15  H    0.094946
    16  N   -0.154058
    17  C   -1.693570
    18  H    0.257417
 Sum of Mulliken charges =  -0.00000
 Mulliken charges with hydrogens summed into heavy atoms:
               1
     1  C    0.533145
     2  C    0.612994
     3  C    0.026657
     4  C    0.284851
     5  C    1.720125
     6  C    0.317790
     7  O   -0.021693
     8  C   -0.261461
     9  O   -0.276865
    10  C   -0.497876
    11  O   -0.209126
    12  O   -0.041236
    14  S   -0.339679
    16  N   -0.154058
    17  C   -1.693570
 Electronic spatial extent (au):  <R**2>=           3134.2286
 Charge=             -0.0000 electrons
 Dipole moment (field-independent basis, Debye):
    X=             -1.9272    Y=             -2.5665    Z=             -0.1494  Tot=              3.2131
 Quadrupole moment (field-independent basis, Debye-Ang):
   XX=            -87.1873   YY=           -107.1875   ZZ=            -93.3485
   XY=            -17.3764   XZ=             -2.4380   YZ=             -2.1794
 Traceless Quadrupole moment (field-independent basis, Debye-Ang):
   XX=              8.7204   YY=            -11.2797   ZZ=              2.5593
   XY=            -17.3764   XZ=             -2.4380   YZ=             -2.1794
 Octapole moment (field-independent basis, Debye-Ang**2):
  XXX=            -22.6747  YYY=            -21.9060  ZZZ=            -11.6083  XYY=            -31.3746
  XXY=            -36.2231  XXZ=            -15.9268  XZZ=             -4.0115  YZZ=             -1.9357
  YYZ=              7.4110  XYZ=            -11.1161
 Hexadecapole moment (field-independent basis, Debye-Ang**3):
 XXXX=          -2300.0253 YYYY=          -1752.8346 ZZZZ=           -234.8797 XXXY=           -263.0790
 XXXZ=            -48.6267 YYYX=            -50.8612 YYYZ=            -19.5467 ZZZX=             -7.8855
 ZZZY=             -3.6262 XXYY=           -674.6862 XXZZ=           -456.8072 YYZZ=           -315.9394
 XXYZ=            -36.8602 YYXZ=            -21.9954 ZZXY=            -24.7648
 N-N= 1.021866862214D+03 E-N=-4.628316273337D+03  KE= 1.095713271789D+03
 Unable to Open any file for archive entry.
 1\1\GINC-N1\SP\RB3LYP TD-FC\6-311++G(d,p)\C9H3N1O4S1\HPCMGAC13\26-Aug-
 2025\0\\# td=(50-50,nstates=3) b3lyp/6-311++g(d,p) geom=connectivity\\
 CNSH\\0,1\C,0,-0.606291,-0.41911,0.076624\C,0,0.471125,0.426231,0.0917
 58\C,0,1.890947,0.202642,-0.053317\C,0,2.480843,1.415953,0.113193\C,0,
 -2.024799,-0.15279,-0.106467\C,0,-2.661017,-1.350201,-0.007998\O,0,-1.
 83789,-2.382287,0.279688\C,0,-0.528122,-1.878716,0.364722\O,0,0.367357
 ,-2.581672,0.729432\C,0,0.329872,1.89556,0.387396\O,0,-0.620677,2.5446
 7,0.686509\O,0,1.619638,2.437381,0.374325\H,0,3.520486,1.690764,0.0194
 77\S,0,2.797105,-1.157936,-0.73796\H,0,2.307399,-2.112971,0.080036\N,0
 ,-3.29492,1.919301,-0.947801\C,0,-2.692967,1.02078,-0.542847\H,0,-3.70
 2088,-1.59276,-0.155563\\Version=ES64L-G16RevC.02\State=1-A\HF=-1098.7
 481964\RMSD=8.526e-09\PG=C01 [X(C9H3N1O4S1)]\\@
 The archive entry for this job was punched.


 MATERIAL COPIED FROM ONE SCHOLARLY BOOK WITHOUT CREDIT COMPRISES PLAGIARISM.
 MATERIAL COPIED FROM TWO SCHOLARLY BOOKS COMPRISES AN ESSAY.
 MATERIAL COPIED FROM THREE SCHOLARLY BOOKS COMPRISES A DISSERTATION.
 MATERIAL COPIED FROM FOUR SCHOLARLY BOOKS COMPRISES A FIFTH SCHOLARLY BOOK.

                               -- C&EN, 25 FEB 1980
 Job cpu time:       0 days  0 hours 28 minutes 50.6 seconds.
 Elapsed time:       0 days  0 hours  3 minutes 40.4 seconds.
 File lengths (MBytes):  RWF=    722 Int=      0 D2E=      0 Chk=     34 Scr=      2
 Normal termination of Gaussian 16 at Tue Aug 26 12:45:49 2025.
