 Entering Gaussian System, Link 0=g16
 Input=cn-shnew_E.gjf
 Output=cn-shnew_E.log
 Initial command:
 /hpc/softwares/Gaussian/g16/l1.exe "/hpc/home/hpcmgac13/pbs.13939.admin1.x8z/Gau-3651632.inp" -scrdir="/hpc/home/hpcmgac13/pbs.13939.admin1.x8z/"
 Default linda workers: n2
 Default is to use   8 SMP processors on each worker.
 Entering Link 1 = /hpc/softwares/Gaussian/g16/l1.exe PID=   3651633.
  
 Copyright (c) 1988-2021, Gaussian, Inc.  All Rights Reserved.
  
 This is part of the Gaussian(R) 16 program.  It is based on
 the Gaussian(R) 09 system (copyright 2009, Gaussian, Inc.),
 the Gaussian(R) 03 system (copyright 2003, Gaussian, Inc.),
 the Gaussian(R) 98 system (copyright 1998, Gaussian, Inc.),
 the Gaussian(R) 94 system (copyright 1995, Gaussian, Inc.),
 the Gaussian 92(TM) system (copyright 1992, Gaussian, Inc.),
 the Gaussian 90(TM) system (copyright 1990, Gaussian, Inc.),
 the Gaussian 88(TM) system (copyright 1988, Gaussian, Inc.),
 the Gaussian 86(TM) system (copyright 1986, Carnegie Mellon
 University), and the Gaussian 82(TM) system (copyright 1983,
 Carnegie Mellon University). Gaussian is a federally registered
 trademark of Gaussian, Inc.
  
 This software contains proprietary and confidential information,
 including trade secrets, belonging to Gaussian, Inc.
  
 This software is provided under written license and may be
 used, copied, transmitted, or stored only in accord with that
 written license.
  
 The following legend is applicable only to US Government
 contracts under FAR:
  
                    RESTRICTED RIGHTS LEGEND
  
 Use, reproduction and disclosure by the US Government is
 subject to restrictions as set forth in subparagraphs (a)
 and (c) of the Commercial Computer Software - Restricted
 Rights clause in FAR 52.227-19.
  
 Gaussian, Inc.
 340 Quinnipiac St., Bldg. 40, Wallingford CT 06492
  
  
 ---------------------------------------------------------------
 Warning -- This program may not be used in any manner that
 competes with the business of Gaussian, Inc. or will provide
 assistance to any competitor of Gaussian, Inc.  The licensee
 of this program is prohibited from giving any competitor of
 Gaussian, Inc. access to this program.  By using this program,
 the user acknowledges that Gaussian, Inc. is engaged in the
 business of creating and licensing software in the field of
 computational chemistry and represents and warrants to the
 licensee that it is not a competitor of Gaussian, Inc. and that
 it will not use this program in any manner prohibited above.
 ---------------------------------------------------------------
  

 Cite this work as:
 Gaussian 16, Revision C.02,
 M. J. Frisch, G. W. Trucks, H. B. Schlegel, G. E. Scuseria, 
 M. A. Robb, J. R. Cheeseman, G. Scalmani, V. Barone, 
 G. A. Petersson, H. Nakatsuji, X. Li, M. Caricato, A. V. Marenich, 
 J. Bloino, B. G. Janesko, R. Gomperts, B. Mennucci, H. P. Hratchian, 
 J. V. Ortiz, A. F. Izmaylov, J. L. Sonnenberg, D. Williams-Young, 
 F. Ding, F. Lipparini, F. Egidi, J. Goings, B. Peng, A. Petrone, 
 T. Henderson, D. Ranasinghe, V. G. Zakrzewski, J. Gao, N. Rega, 
 G. Zheng, W. Liang, M. Hada, M. Ehara, K. Toyota, R. Fukuda, 
 J. Hasegawa, M. Ishida, T. Nakajima, Y. Honda, O. Kitao, H. Nakai, 
 T. Vreven, K. Throssell, J. A. Montgomery, Jr., J. E. Peralta, 
 F. Ogliaro, M. J. Bearpark, J. J. Heyd, E. N. Brothers, K. N. Kudin, 
 V. N. Staroverov, T. A. Keith, R. Kobayashi, J. Normand, 
 K. Raghavachari, A. P. Rendell, J. C. Burant, S. S. Iyengar, 
 J. Tomasi, M. Cossi, J. M. Millam, M. Klene, C. Adamo, R. Cammi, 
 J. W. Ochterski, R. L. Martin, K. Morokuma, O. Farkas, 
 J. B. Foresman, and D. J. Fox, Gaussian, Inc., Wallingford CT, 2019.
 
 ******************************************
 Gaussian 16:  ES64L-G16RevC.02  7-Dec-2021
                11-Sep-2025 
 ******************************************
 SetLPE:    new flags="-opt 'Tsnet.Node.lindarsharg: ssh'  -nodelist 'n2.head.cm.mguif.local' -env GAUSS_MDEF=2147483648 -env GAUSS_EXEDIR="/hpc/softwares/Gaussian/g16/bsd:/hpc/softwares/Gaussian/g16""
 Will use up to    1 processors via Linda.
 ------------------------------------------------------------
 # td=(50-50,nstates=3) b3lyp/6-311++g(d,p) geom=connectivity
 ------------------------------------------------------------
 1/38=1,57=2,172=1/1;
 2/12=2,17=6,18=5,40=1/2;
 3/5=4,6=6,7=1111,11=9,25=1,30=1,74=-5/1,2,3,8;
 4//1;
 5/5=2,38=5/2;
 8/6=1,10=2,108=3/1;
 9/41=3,42=1,48=2,70=2/14;
 6/7=2,8=2,9=2,10=2/1;
 99/5=1,9=1/99;
 -------------------
 Title Card Required
 -------------------
 Symbolic Z-matrix:
 Charge =  0 Multiplicity = 1
 C                    -0.41953   0.038     0.03381 
 C                     0.88908   0.44737   0.0099 
 C                     2.16571  -0.22928  -0.00964 
 C                     3.10648   0.74617   0.08664 
 C                    -1.59643   0.85361  -0.1038 
 C                    -2.66102   0.02058  -0.04772 
 O                    -2.3134   -1.29838   0.15875 
 C                    -0.92715  -1.35122   0.26103 
 O                    -0.37849  -2.37209   0.56201 
 C                     1.22361   1.91665   0.06869 
 O                     0.52035   2.88053   0.08544 
 O                     2.60749   2.01904   0.1384 
 H                     4.18265   0.66815   0.08826 
 S                     2.62655  -1.89505  -0.39873 
 H                     1.62113  -2.49794   0.26975 
 C                    -4.03954   0.30686  -0.17802 
 N                    -5.16218   0.5581   -0.28646 
 H                    -1.62825   1.91871  -0.2553 
 
                          Input orientation:                          
 ---------------------------------------------------------------------
 Center     Atomic      Atomic             Coordinates (Angstroms)
 Number     Number       Type             X           Y           Z
 ---------------------------------------------------------------------
      1          6           0       -0.419527    0.038001    0.033814
      2          6           0        0.889080    0.447369    0.009901
      3          6           0        2.165706   -0.229276   -0.009639
      4          6           0        3.106476    0.746173    0.086643
      5          6           0       -1.596426    0.853606   -0.103802
      6          6           0       -2.661022    0.020575   -0.047717
      7          8           0       -2.313399   -1.298381    0.158751
      8          6           0       -0.927151   -1.351224    0.261029
      9          8           0       -0.378490   -2.372092    0.562014
     10          6           0        1.223607    1.916651    0.068685
     11          8           0        0.520353    2.880531    0.085442
     12          8           0        2.607493    2.019037    0.138396
     13          1           0        4.182652    0.668149    0.088257
     14         16           0        2.626552   -1.895049   -0.398730
     15          1           0        1.621132   -2.497936    0.269749
     16          6           0       -4.039537    0.306855   -0.178020
     17          7           0       -5.162179    0.558104   -0.286457
     18          1           0       -1.628250    1.918706   -0.255302
 ---------------------------------------------------------------------
                    Distance matrix (angstroms):
                    1          2          3          4          5
     1  C    0.000000
     2  C    1.371352   0.000000
     3  C    2.599376   1.444993   0.000000
     4  C    3.596804   2.238754   1.358609   0.000000
     5  C    1.438486   2.521051   3.916010   4.707982   0.000000
     6  C    2.243045   3.576129   4.833340   5.814514   1.352942
     7  O    2.321266   3.650434   4.608006   5.793138   2.283426
     8  C    1.496414   2.568404   3.301181   4.549685   2.332875
     9  O    2.467636   3.140211   3.375112   4.700483   3.511667
    10  C    2.496083   1.508030   2.344928   2.217101   3.018676
    11  O    2.994331   2.462101   3.519535   3.353136   2.936834
    12  O    3.619156   2.332294   2.296084   1.368154   4.369190
    13  H    4.645439   3.301893   2.209757   1.079002   5.785242
    14  S    3.633507   2.944947   1.771601   2.727997   5.047339
    15  H    3.263576   3.046021   2.349774   3.572677   4.661014
    16  C    3.636156   4.934199   6.230636   7.164395   2.504643
    17  N    4.781823   6.059524   7.375262   8.279205   3.582636
    18  H    2.254252   2.927818   4.366724   4.889723   1.076291
                    6          7          8          9         10
     6  C    0.000000
     7  O    1.379535   0.000000
     8  C    2.232368   1.391020   0.000000
     9  O    3.362526   2.249300   1.197411   0.000000
    10  C    4.324234   4.780686   3.916856   4.604715   0.000000
    11  O    4.279980   5.049637   4.475919   5.350242   1.193278
    12  O    5.637884   5.934716   4.885428   5.327059   1.389418
    13  H    6.875588   6.787554   5.497072   5.501957   3.211711
    14  S    5.634826   5.006986   3.655110   3.190749   4.088495
    15  H    4.978004   4.114825   2.794418   2.024782   4.437007
    16  C    1.413944   2.381124   3.553722   4.596485   5.509355
    17  N    2.569381   3.429329   4.677685   5.673591   6.538351
    18  H    2.170855   3.315195   3.383871   4.543221   2.870202
                   11         12         13         14         15
    11  O    0.000000
    12  O    2.258568   0.000000
    13  H    4.278677   2.075702   0.000000
    14  S    5.241818   3.950815   3.037859   0.000000
    15  H    5.493049   4.625279   4.076569   1.349521   0.000000
    16  C    5.242692   6.871295   8.234429   7.023805   6.333287
    17  N    6.150053   7.917236   9.352988   8.166694   7.460701
    18  H    2.378594   4.255183   5.953865   5.715649   5.508256
                   16         17         18
    16  C    0.000000
    17  N    1.155513   0.000000
    18  H    2.901438   3.786933   0.000000
 Stoichiometry    C9H3NO4S
 Framework group  C1[X(C9H3NO4S)]
 Deg. of freedom    48
 Full point group                 C1      NOp   1
 Largest Abelian subgroup         C1      NOp   1
 Largest concise Abelian subgroup C1      NOp   1
                         Standard orientation:                         
 ---------------------------------------------------------------------
 Center     Atomic      Atomic             Coordinates (Angstroms)
 Number     Number       Type             X           Y           Z
 ---------------------------------------------------------------------
      1          6           0       -0.419527    0.038001    0.033814
      2          6           0        0.889080    0.447369    0.009901
      3          6           0        2.165706   -0.229276   -0.009639
      4          6           0        3.106476    0.746173    0.086643
      5          6           0       -1.596426    0.853606   -0.103802
      6          6           0       -2.661022    0.020575   -0.047717
      7          8           0       -2.313399   -1.298381    0.158751
      8          6           0       -0.927151   -1.351224    0.261029
      9          8           0       -0.378490   -2.372092    0.562014
     10          6           0        1.223607    1.916651    0.068685
     11          8           0        0.520353    2.880531    0.085442
     12          8           0        2.607493    2.019037    0.138396
     13          1           0        4.182652    0.668149    0.088257
     14         16           0        2.626552   -1.895049   -0.398730
     15          1           0        1.621132   -2.497936    0.269749
     16          6           0       -4.039537    0.306855   -0.178020
     17          7           0       -5.162179    0.558105   -0.286457
     18          1           0       -1.628250    1.918706   -0.255302
 ---------------------------------------------------------------------
 Rotational constants (GHZ):           0.9292351           0.3730562           0.2701085
 Standard basis: 6-311++G(d,p) (5D, 7F)
 There are   374 symmetry adapted cartesian basis functions of A   symmetry.
 There are   359 symmetry adapted basis functions of A   symmetry.
   359 basis functions,   581 primitive gaussians,   374 cartesian basis functions
    56 alpha electrons       56 beta electrons
       nuclear repulsion energy       998.4382996683 Hartrees.
 NAtoms=   18 NActive=   18 NUniq=   18 SFac= 1.00D+00 NAtFMM=   60 NAOKFM=F Big=F
 Integral buffers will be    131072 words long.
 Regular integral format.
 Two-electron integral symmetry is turned on.
 One-electron integrals computed using PRISM.
 NBasis=   359 RedAO= T EigKep=  1.94D-06  NBF=   359
 NBsUse=   357 1.00D-06 EigRej=  8.32D-07 NBFU=   357
 ExpMin= 3.60D-02 ExpMax= 9.34D+04 ExpMxC= 3.17D+03 IAcc=3 IRadAn=         5 AccDes= 0.00D+00
 Harris functional with IExCor=  402 and IRadAn=       5 diagonalized for initial guess.
 HarFok:  IExCor=  402 AccDes= 0.00D+00 IRadAn=         5 IDoV= 1 UseB2=F ITyADJ=14
 ICtDFT=  3500011 ScaDFX=  1.000000  1.000000  1.000000  1.000000
 FoFCou: FMM=F IPFlag=           0 FMFlag=      100000 FMFlg1=           0
         NFxFlg=           0 DoJE=T BraDBF=F KetDBF=T FulRan=T
         wScrn=  0.000000 ICntrl=       500 IOpCl=  0 I1Cent=   200000004 NGrid=           0
         NMat0=    1 NMatS0=      1 NMatT0=    0 NMatD0=    1 NMtDS0=    0 NMtDT0=    0
 Petite list used in FoFCou.
 Requested convergence on RMS density matrix=1.00D-08 within 128 cycles.
 Requested convergence on MAX density matrix=1.00D-06.
 Requested convergence on             energy=1.00D-06.
 No special actions if energy rises.
 SCF Done:  E(RB3LYP) =  -1098.75346218     A.U. after   17 cycles
            NFock= 17  Conv=0.81D-08     -V/T= 2.0028
 DoSCS=F DFT=T ScalE2(SS,OS)=  1.000000  1.000000
 ExpMin= 3.60D-02 ExpMax= 9.34D+04 ExpMxC= 3.17D+03 IAcc=3 IRadAn=         5 AccDes= 0.00D+00
 HarFok:  IExCor=  205 AccDes= 0.00D+00 IRadAn=         5 IDoV=-2 UseB2=F ITyADJ=14
 ICtDFT= 12500011 ScaDFX=  1.000000  1.000000  1.000000  1.000000
 Range of M.O.s used for correlation:    20   357
 NBasis=   359 NAE=    56 NBE=    56 NFC=    19 NFV=     0
 NROrb=    338 NOA=    37 NOB=    37 NVA=   301 NVB=   301

 **** Warning!!: The largest alpha MO coefficient is  0.14556319D+03


 **** Warning!!: The smallest alpha delta epsilon is  0.85532402D-01

 Orbital symmetries:
       Occupied  (A) (A) (A) (A) (A) (A) (A) (A) (A) (A) (A) (A)
                 (A) (A) (A) (A) (A) (A) (A) (A) (A) (A) (A) (A)
                 (A) (A) (A) (A) (A) (A) (A) (A) (A) (A) (A) (A)
                 (A) (A) (A) (A) (A) (A) (A) (A) (A) (A) (A) (A)
                 (A) (A) (A) (A) (A) (A) (A) (A)
       Virtual   (A) (A) (A) (A) (A) (A) (A) (A) (A) (A) (A) (A)
                 (A) (A) (A) (A) (A) (A) (A) (A) (A) (A) (A) (A)
                 (A) (A) (A) (A) (A) (A) (A) (A) (A) (A) (A) (A)
                 (A) (A) (A) (A) (A) (A) (A) (A) (A) (A) (A) (A)
                 (A) (A) (A) (A) (A) (A) (A) (A) (A) (A) (A) (A)
                 (A) (A) (A) (A) (A) (A) (A) (A) (A) (A) (A) (A)
                 (A) (A) (A) (A) (A) (A) (A) (A) (A) (A) (A) (A)
                 (A) (A) (A) (A) (A) (A) (A) (A) (A) (A) (A) (A)
                 (A) (A) (A) (A) (A) (A) (A) (A) (A) (A) (A) (A)
                 (A) (A) (A) (A) (A) (A) (A) (A) (A) (A) (A) (A)
                 (A) (A) (A) (A) (A) (A) (A) (A) (A) (A) (A) (A)
                 (A) (A) (A) (A) (A) (A) (A) (A) (A) (A) (A) (A)
                 (A) (A) (A) (A) (A) (A) (A) (A) (A) (A) (A) (A)
                 (A) (A) (A) (A) (A) (A) (A) (A) (A) (A) (A) (A)
                 (A) (A) (A) (A) (A) (A) (A) (A) (A) (A) (A) (A)
                 (A) (A) (A) (A) (A) (A) (A) (A) (A) (A) (A) (A)
                 (A) (A) (A) (A) (A) (A) (A) (A) (A) (A) (A) (A)
                 (A) (A) (A) (A) (A) (A) (A) (A) (A) (A) (A) (A)
                 (A) (A) (A) (A) (A) (A) (A) (A) (A) (A) (A) (A)
                 (A) (A) (A) (A) (A) (A) (A) (A) (A) (A) (A) (A)
                 (A) (A) (A) (A) (A) (A) (A) (A) (A) (A) (A) (A)
                 (A) (A) (A) (A) (A) (A) (A) (A) (A) (A) (A) (A)
                 (A) (A) (A) (A) (A) (A) (A) (A) (A) (A) (A) (A)
                 (A) (A) (A) (A) (A) (A) (A) (A) (A) (A) (A) (A)
                 (A) (A) (A) (A) (A) (A) (A) (A) (A) (A) (A) (A)
                 (A)
    24 initial guesses have been made.
 Convergence on wavefunction:    0.001000000000000
 Iteration     1 Dimension    24 NMult     0 NNew     24
 CISAX will form    24 AO SS matrices at one time.
 New state      1 was old state      2
 New state      2 was old state      1
 New state      3 was old state      4
 New state      4 was old state      6
 New state      6 was old state      8
 New state      7 was old state      3
 New state      8 was old state     10
 New state     10 was old state     12
 New state     11 was old state      7
 New state     12 was old state     18
 Vector   6 SDiff=2.19D+00 TDiff=2.76D+01 assumed to be singlet.
 Vector  12 SDiff=1.96D+00 TDiff=1.88D+01 assumed to be singlet.
 Iteration     2 Dimension    36 NMult    24 NNew     12
 New state      5 was old state      7
 New state      6 was old state      5
 Iteration     3 Dimension    48 NMult    36 NNew     12
 Iteration     4 Dimension    60 NMult    48 NNew     12
 Iteration     5 Dimension    70 NMult    60 NNew     10
 Iteration     6 Dimension    72 NMult    70 NNew      2
 ***********************************************************************
 Excited states from <AA,BB:AA,BB> singles matrix:
 ***********************************************************************
 
 Ground to excited state transition densities written to RWF  633
 Ground to excited state transition electric dipole moments (Au):
       state          X           Y           Z        Dip. S.      Osc.
         1         0.0000     -0.0000     -0.0000      0.0000      0.0000
         2         1.0607      0.3663     -0.0073      1.2594      0.0584
         3        -0.0000     -0.0000      0.0000      0.0000      0.0000
         4         0.0000      0.0000     -0.0000      0.0000      0.0000
         5         1.8775      0.6315     -0.0192      3.9243      0.2873
         6        -0.0800     -0.0031     -0.0082      0.0065      0.0005
 Ground to excited state transition velocity dipole moments (Au):
       state          X           Y           Z        Dip. S.      Osc.
         1        -0.0000      0.0000      0.0000      0.0000      0.0000
         2        -0.0729     -0.0294     -0.0006      0.0062      0.0592
         3         0.0000      0.0000      0.0000      0.0000      0.0000
         4        -0.0000     -0.0000      0.0000      0.0000      0.0000
         5        -0.2069     -0.0715      0.0026      0.0479      0.2909
         6         0.0097      0.0011      0.0008      0.0001      0.0005
 Ground to excited state transition magnetic dipole moments (Au):
       state          X           Y           Z
         1         0.0000     -0.0000     -0.0000
         2         0.0298      0.0713     -0.0753
         3        -0.0000     -0.0000      0.0000
         4        -0.0000      0.0000     -0.0000
         5         0.0262      0.0290      0.3831
         6        -0.2362      0.3961      0.0413
 Ground to excited state transition velocity quadrupole moments (Au):
       state          XX          YY          ZZ          XY          XZ          YZ
         1         0.0000     -0.0000     -0.0000     -0.0000      0.0000      0.0000
         2        -0.0038     -0.0536      0.0048     -0.0742     -0.0012     -0.0245
         3         0.0000      0.0000     -0.0000      0.0000      0.0000      0.0000
         4         0.0000     -0.0000      0.0000      0.0000      0.0000      0.0000
         5         0.5831     -0.1911     -0.0061     -0.1027      0.0371     -0.0594
         6         0.1109      0.0304     -0.0039      0.0015      0.0096     -0.0083
 <0|del|b> * <b|rxdel|0> + <0|del|b> * <b|delr+rdel|0>
 Rotatory Strengths (R) in cgs (10**-40 erg-esu-cm/Gauss)
       state          XX          YY          ZZ    R(velocity)    E-M Angle
         1        -0.0000     -0.0000      0.0000     -0.0000       90.00
         2       -10.4304     -1.9400    -30.6126    -14.3277      119.90
         3        -0.0000     -0.0000     -0.0000     -0.0000       90.00
         4        -0.0000     -0.0000     -0.0000     -0.0000       90.00
         5         4.2307     26.2223    -72.2645    -13.9372       94.42
         6         1.3527     -6.8693     -5.1725     -3.5630      113.67
 1/2[<0|r|b>*<b|rxdel|0> + (<0|rxdel|b>*<b|r|0>)*]
 Rotatory Strengths (R) in cgs (10**-40 erg-esu-cm/Gauss)
       state          XX          YY          ZZ     R(length)
         1        -0.0000     -0.0000     -0.0000     -0.0000
         2       -22.3391    -18.4748     -0.3893    -13.7344
         3        -0.0000     -0.0000     -0.0000     -0.0000
         4         0.0000     -0.0000     -0.0000      0.0000
         5       -34.8004    -12.9564      5.2047    -14.1840
         6       -13.3520      0.8618      0.2382     -4.0840
  1/2[<0|del|b>*<b|r|0> + (<0|r|b>*<b|del|0>)*] (Au)
       state          X           Y           Z        Dip. S.   Osc.(frdel)
         1        -0.0000     -0.0000     -0.0000      0.0000      0.0000
         2        -0.0773     -0.0108      0.0000      0.0881      0.0587
         3        -0.0000     -0.0000      0.0000      0.0000      0.0000
         4        -0.0000     -0.0000     -0.0000      0.0000      0.0000
         5        -0.3884     -0.0452     -0.0001      0.4336      0.2891
         6        -0.0008     -0.0000     -0.0000      0.0008      0.0005

 Excitation energies and oscillator strengths:
 
 Excited State   1:      Triplet-A      0.7574 eV 1636.96 nm  f=0.0000  <S**2>=2.000
      55 -> 57         0.25869
      56 -> 57         0.69916
      55 <- 57         0.13090
      56 <- 57         0.22526
 This state for optimization and/or second-order correction.
 Total Energy, E(TD-HF/TD-DFT) =  -1098.72562806    
 Copying the excited state density for this state as the 1-particle RhoCI density.
 
 Excited State   2:      Singlet-A      1.8919 eV  655.34 nm  f=0.0584  <S**2>=0.000
      55 -> 57        -0.23811
      56 -> 57         0.66800
 
 Excited State   3:      Triplet-A      1.9825 eV  625.39 nm  f=0.0000  <S**2>=2.000
      55 -> 57         0.65663
      56 -> 57        -0.22360
 
 Excited State   4:      Triplet-A      2.9765 eV  416.54 nm  f=0.0000  <S**2>=2.000
      53 -> 57        -0.12725
      54 -> 57         0.67575
 
 Excited State   5:      Singlet-A      2.9886 eV  414.86 nm  f=0.2873  <S**2>=0.000
      55 -> 57         0.65929
      56 -> 57         0.24046
 
 Excited State   6:      Singlet-A      3.2742 eV  378.67 nm  f=0.0005  <S**2>=0.000
      53 -> 57        -0.18123
      54 -> 57         0.67770
 SavETr:  write IOETrn=   770 NScale= 10 NData=  16 NLR=1 NState=    6 LETran=     118.

 **********************************************************************

            Population analysis using the SCF Density.

 **********************************************************************

 Orbital symmetries:
       Occupied  (A) (A) (A) (A) (A) (A) (A) (A) (A) (A) (A) (A)
                 (A) (A) (A) (A) (A) (A) (A) (A) (A) (A) (A) (A)
                 (A) (A) (A) (A) (A) (A) (A) (A) (A) (A) (A) (A)
                 (A) (A) (A) (A) (A) (A) (A) (A) (A) (A) (A) (A)
                 (A) (A) (A) (A) (A) (A) (A) (A)
       Virtual   (A) (A) (A) (A) (A) (A) (A) (A) (A) (A) (A) (A)
                 (A) (A) (A) (A) (A) (A) (A) (A) (A) (A) (A) (A)
                 (A) (A) (A) (A) (A) (A) (A) (A) (A) (A) (A) (A)
                 (A) (A) (A) (A) (A) (A) (A) (A) (A) (A) (A) (A)
                 (A) (A) (A) (A) (A) (A) (A) (A) (A) (A) (A) (A)
                 (A) (A) (A) (A) (A) (A) (A) (A) (A) (A) (A) (A)
                 (A) (A) (A) (A) (A) (A) (A) (A) (A) (A) (A) (A)
                 (A) (A) (A) (A) (A) (A) (A) (A) (A) (A) (A) (A)
                 (A) (A) (A) (A) (A) (A) (A) (A) (A) (A) (A) (A)
                 (A) (A) (A) (A) (A) (A) (A) (A) (A) (A) (A) (A)
                 (A) (A) (A) (A) (A) (A) (A) (A) (A) (A) (A) (A)
                 (A) (A) (A) (A) (A) (A) (A) (A) (A) (A) (A) (A)
                 (A) (A) (A) (A) (A) (A) (A) (A) (A) (A) (A) (A)
                 (A) (A) (A) (A) (A) (A) (A) (A) (A) (A) (A) (A)
                 (A) (A) (A) (A) (A) (A) (A) (A) (A) (A) (A) (A)
                 (A) (A) (A) (A) (A) (A) (A) (A) (A) (A) (A) (A)
                 (A) (A) (A) (A) (A) (A) (A) (A) (A) (A) (A) (A)
                 (A) (A) (A) (A) (A) (A) (A) (A) (A) (A) (A) (A)
                 (A) (A) (A) (A) (A) (A) (A) (A) (A) (A) (A) (A)
                 (A) (A) (A) (A) (A) (A) (A) (A) (A) (A) (A) (A)
                 (A) (A) (A) (A) (A) (A) (A) (A) (A) (A) (A) (A)
                 (A) (A) (A) (A) (A) (A) (A) (A) (A) (A) (A) (A)
                 (A) (A) (A) (A) (A) (A) (A) (A) (A) (A) (A) (A)
                 (A) (A) (A) (A) (A) (A) (A) (A) (A) (A) (A) (A)
                 (A) (A) (A) (A) (A) (A) (A) (A) (A) (A) (A) (A)
                 (A)
 The electronic state is 1-A.
 Alpha  occ. eigenvalues --  -88.88264 -19.23256 -19.23027 -19.17518 -19.17328
 Alpha  occ. eigenvalues --  -14.35973 -10.36103 -10.35933 -10.31930 -10.29470
 Alpha  occ. eigenvalues --  -10.27245 -10.26674 -10.26011 -10.25212 -10.24087
 Alpha  occ. eigenvalues --   -7.96958  -5.93374  -5.92938  -5.92338  -1.17763
 Alpha  occ. eigenvalues --   -1.17607  -1.09998  -1.09870  -0.95278  -0.90957
 Alpha  occ. eigenvalues --   -0.86763  -0.82198  -0.78278  -0.75706  -0.70398
 Alpha  occ. eigenvalues --   -0.66344  -0.63688  -0.60097  -0.59616  -0.54989
 Alpha  occ. eigenvalues --   -0.53375  -0.52434  -0.52109  -0.50442  -0.49942
 Alpha  occ. eigenvalues --   -0.48086  -0.46832  -0.44263  -0.43605  -0.43530
 Alpha  occ. eigenvalues --   -0.41839  -0.40643  -0.40196  -0.39000  -0.38431
 Alpha  occ. eigenvalues --   -0.38094  -0.34900  -0.33938  -0.32581  -0.28790
 Alpha  occ. eigenvalues --   -0.25300
 Alpha virt. eigenvalues --   -0.16747  -0.06639  -0.03446  -0.03153  -0.02270
 Alpha virt. eigenvalues --   -0.01745  -0.00793  -0.00172   0.00848   0.01436
 Alpha virt. eigenvalues --    0.02397   0.02734   0.04242   0.04535   0.04618
 Alpha virt. eigenvalues --    0.05547   0.06189   0.06260   0.06941   0.07416
 Alpha virt. eigenvalues --    0.07481   0.07747   0.08466   0.09104   0.09184
 Alpha virt. eigenvalues --    0.09734   0.10050   0.10289   0.10725   0.10799
 Alpha virt. eigenvalues --    0.11443   0.12112   0.12640   0.13618   0.14002
 Alpha virt. eigenvalues --    0.14277   0.14439   0.15164   0.15462   0.16472
 Alpha virt. eigenvalues --    0.16662   0.17422   0.17927   0.18254   0.19185
 Alpha virt. eigenvalues --    0.19347   0.19509   0.19975   0.20617   0.21797
 Alpha virt. eigenvalues --    0.22100   0.22610   0.23144   0.23683   0.24223
 Alpha virt. eigenvalues --    0.25153   0.25620   0.25969   0.26070   0.26240
 Alpha virt. eigenvalues --    0.26887   0.27334   0.27855   0.28459   0.28696
 Alpha virt. eigenvalues --    0.29170   0.29417   0.29905   0.30285   0.30553
 Alpha virt. eigenvalues --    0.31740   0.31975   0.32878   0.33200   0.33820
 Alpha virt. eigenvalues --    0.34411   0.35087   0.36426   0.37447   0.38403
 Alpha virt. eigenvalues --    0.38641   0.39520   0.40928   0.43357   0.43456
 Alpha virt. eigenvalues --    0.44892   0.46518   0.47506   0.48546   0.51427
 Alpha virt. eigenvalues --    0.52340   0.52985   0.53988   0.54483   0.55325
 Alpha virt. eigenvalues --    0.56792   0.58879   0.59039   0.59793   0.60741
 Alpha virt. eigenvalues --    0.61933   0.62902   0.63619   0.64265   0.65965
 Alpha virt. eigenvalues --    0.67596   0.68748   0.70263   0.72355   0.73059
 Alpha virt. eigenvalues --    0.74067   0.74515   0.76482   0.76978   0.77543
 Alpha virt. eigenvalues --    0.78653   0.80020   0.81271   0.83991   0.85581
 Alpha virt. eigenvalues --    0.86492   0.87511   0.88431   0.89388   0.89838
 Alpha virt. eigenvalues --    0.90331   0.90703   0.93064   0.94190   0.95213
 Alpha virt. eigenvalues --    0.97179   0.98803   0.99172   1.00182   1.00629
 Alpha virt. eigenvalues --    1.01837   1.02592   1.03776   1.05725   1.08351
 Alpha virt. eigenvalues --    1.08714   1.10139   1.11401   1.12396   1.14287
 Alpha virt. eigenvalues --    1.16457   1.16692   1.18846   1.19251   1.19374
 Alpha virt. eigenvalues --    1.20563   1.21300   1.22278   1.22733   1.23669
 Alpha virt. eigenvalues --    1.25701   1.27219   1.27995   1.32853   1.34783
 Alpha virt. eigenvalues --    1.36436   1.37467   1.41956   1.45029   1.45426
 Alpha virt. eigenvalues --    1.48546   1.49484   1.51430   1.54238   1.56946
 Alpha virt. eigenvalues --    1.58060   1.60960   1.62851   1.63406   1.65996
 Alpha virt. eigenvalues --    1.67610   1.68468   1.69751   1.70540   1.72656
 Alpha virt. eigenvalues --    1.74577   1.75754   1.76823   1.77822   1.78844
 Alpha virt. eigenvalues --    1.81806   1.82825   1.86531   1.88789   1.92754
 Alpha virt. eigenvalues --    1.93306   1.95551   1.96122   1.98572   2.00395
 Alpha virt. eigenvalues --    2.01109   2.02449   2.03222   2.05051   2.06455
 Alpha virt. eigenvalues --    2.07218   2.13991   2.14816   2.20566   2.22749
 Alpha virt. eigenvalues --    2.30168   2.32856   2.35408   2.40002   2.47952
 Alpha virt. eigenvalues --    2.51915   2.56592   2.58524   2.63111   2.63960
 Alpha virt. eigenvalues --    2.66220   2.66743   2.67864   2.71569   2.74035
 Alpha virt. eigenvalues --    2.77731   2.78708   2.80229   2.81322   2.81938
 Alpha virt. eigenvalues --    2.83382   2.85972   2.86947   2.88702   2.91215
 Alpha virt. eigenvalues --    2.91826   2.92508   2.93362   2.96494   2.96810
 Alpha virt. eigenvalues --    2.98704   3.03381   3.07098   3.07324   3.08294
 Alpha virt. eigenvalues --    3.09833   3.11147   3.12109   3.17353   3.21307
 Alpha virt. eigenvalues --    3.23601   3.29216   3.33304   3.33647   3.34621
 Alpha virt. eigenvalues --    3.35915   3.44995   3.48387   3.55413   3.58423
 Alpha virt. eigenvalues --    3.63847   3.66929   3.73986   3.80812   3.95264
 Alpha virt. eigenvalues --    3.95658   3.99160   4.00901   4.01968   4.04325
 Alpha virt. eigenvalues --    4.06602   4.26637   4.31705   4.47283   4.59455
 Alpha virt. eigenvalues --    4.92414   4.94481   4.99831   5.01358   5.15476
 Alpha virt. eigenvalues --    5.19865   5.35634   5.39388   5.63330   5.64443
 Alpha virt. eigenvalues --    5.83567   5.85041   7.95534  17.29632  17.39529
 Alpha virt. eigenvalues --   17.49116  23.50821  23.63832  23.75331  23.81949
 Alpha virt. eigenvalues --   23.83280  24.04983  24.10413  24.12131  24.49327
 Alpha virt. eigenvalues --   35.85925  49.83976  49.85922  50.00801  50.02039
 Alpha virt. eigenvalues --  189.12834
          Condensed to atoms (all electrons):
               1          2          3          4          5          6
     1  C   10.909361  -0.363654  -0.321069   0.951214   0.186173   0.627498
     2  C   -0.363654  11.580594  -3.327350   0.668551  -2.303168   1.888559
     3  C   -0.321069  -3.327350  14.884966  -3.043122  -2.349567   0.202347
     4  C    0.951214   0.668551  -3.043122  10.962156   0.829781  -0.225770
     5  C    0.186173  -2.303168  -2.349567   0.829781  22.154911  -8.443495
     6  C    0.627498   1.888559   0.202347  -0.225770  -8.443495  20.529434
     7  O   -0.075198  -0.153760  -0.043440  -0.000247   0.974361  -0.279216
     8  C   -2.482718   0.441770  -0.541605  -0.392471  -1.997468   0.877211
     9  O    0.128647  -0.021825  -0.064091   0.029763   0.050593   0.040203
    10  C   -1.049982  -2.798068   1.446730  -3.488543  -2.054379   0.206074
    11  O   -0.096967   0.034875  -0.045960   0.060853   0.067821   0.078829
    12  O    0.004235  -0.045176   0.038286  -0.172994   0.043057   0.027699
    13  H    0.010444   0.007354  -0.205533   0.632334   0.007871   0.001010
    14  S   -0.699324   0.368335  -0.094525  -0.969606  -0.346024   0.024908
    15  H    0.060692  -0.123811   0.017102   0.104344   0.068089  -0.024229
    16  C   -2.563731  -0.316609  -0.850882   0.055888  -1.393261 -11.642415
    17  N    0.069581   0.018316   0.009873  -0.000436  -0.018981   1.189913
    18  H    0.031583   0.015145   0.046116  -0.003505   0.256398   0.091099
               7          8          9         10         11         12
     1  C   -0.075198  -2.482718   0.128647  -1.049982  -0.096967   0.004235
     2  C   -0.153760   0.441770  -0.021825  -2.798068   0.034875  -0.045176
     3  C   -0.043440  -0.541605  -0.064091   1.446730  -0.045960   0.038286
     4  C   -0.000247  -0.392471   0.029763  -3.488543   0.060853  -0.172994
     5  C    0.974361  -1.997468   0.050593  -2.054379   0.067821   0.043057
     6  C   -0.279216   0.877211   0.040203   0.206074   0.078829   0.027699
     7  O    8.159942   0.076997  -0.036778  -0.007988  -0.000126  -0.000010
     8  C    0.076997   8.577321   0.217457   1.067670  -0.013655   0.002765
     9  O   -0.036778   0.217457   8.038804  -0.022821   0.000266  -0.000347
    10  C   -0.007988   1.067670  -0.022821  12.019095   0.196576   0.197848
    11  O   -0.000126  -0.013655   0.000266   0.196576   8.016404  -0.052354
    12  O   -0.000010   0.002765  -0.000347   0.197848  -0.052354   8.086964
    13  H   -0.000228  -0.006051   0.000703  -0.089333  -0.000364  -0.070215
    14  S   -0.002610   0.322825  -0.032581   0.622572   0.000952  -0.013949
    15  H    0.003170  -0.034193  -0.028668  -0.052735   0.000185   0.003145
    16  C   -0.582580  -0.013420  -0.011543   0.152789   0.010072   0.000769
    17  N    0.003737   0.015352  -0.000016  -0.002895   0.000046  -0.000001
    18  H    0.001900   0.020002  -0.001039   0.019010  -0.008416   0.000394
              13         14         15         16         17         18
     1  C    0.010444  -0.699324   0.060692  -2.563731   0.069581   0.031583
     2  C    0.007354   0.368335  -0.123811  -0.316609   0.018316   0.015145
     3  C   -0.205533  -0.094525   0.017102  -0.850882   0.009873   0.046116
     4  C    0.632334  -0.969606   0.104344   0.055888  -0.000436  -0.003505
     5  C    0.007871  -0.346024   0.068089  -1.393261  -0.018981   0.256398
     6  C    0.001010   0.024908  -0.024229 -11.642415   1.189913   0.091099
     7  O   -0.000228  -0.002610   0.003170  -0.582580   0.003737   0.001900
     8  C   -0.006051   0.322825  -0.034193  -0.013420   0.015352   0.020002
     9  O    0.000703  -0.032581  -0.028668  -0.011543  -0.000016  -0.001039
    10  C   -0.089333   0.622572  -0.052735   0.152789  -0.002895   0.019010
    11  O   -0.000364   0.000952   0.000185   0.010072   0.000046  -0.008416
    12  O   -0.070215  -0.013949   0.003145   0.000769  -0.000001   0.000394
    13  H    0.485473  -0.025394   0.001272   0.000484   0.000000  -0.000049
    14  S   -0.025394  17.062619   0.166093  -0.012066   0.000065   0.000582
    15  H    0.001272   0.166093   0.763920  -0.010139   0.000083  -0.000036
    16  C    0.000484  -0.012066  -0.010139  25.804617  -1.057092  -0.176617
    17  N    0.000000   0.000065   0.000083  -1.057092   6.917443   0.007921
    18  H   -0.000049   0.000582  -0.000036  -0.176617   0.007921   0.436501
 Mulliken charges:
               1
     1  C    0.673217
     2  C    0.429921
     3  C    0.241724
     4  C    0.001812
     5  C    0.267286
     6  C    0.830342
     7  O   -0.037925
     8  C   -0.137789
     9  O   -0.286725
    10  C   -0.361618
    11  O   -0.249035
    12  O   -0.050115
    13  H    0.250222
    14  S   -0.372872
    15  H    0.085716
    16  C   -1.394263
    17  N   -0.152909
    18  H    0.263013
 Sum of Mulliken charges =  -0.00000
 Mulliken charges with hydrogens summed into heavy atoms:
               1
     1  C    0.673217
     2  C    0.429921
     3  C    0.241724
     4  C    0.252033
     5  C    0.530299
     6  C    0.830342
     7  O   -0.037925
     8  C   -0.137789
     9  O   -0.286725
    10  C   -0.361618
    11  O   -0.249035
    12  O   -0.050115
    14  S   -0.287156
    16  C   -1.394263
    17  N   -0.152909
 Electronic spatial extent (au):  <R**2>=           3648.4170
 Charge=             -0.0000 electrons
 Dipole moment (field-independent basis, Debye):
    X=              4.0498    Y=              0.1391    Z=             -0.0832  Tot=              4.0530
 Quadrupole moment (field-independent basis, Debye-Ang):
   XX=           -105.0589   YY=           -104.3326   ZZ=            -90.9049
   XY=              0.1684   XZ=             -0.5996   YZ=              0.1803
 Traceless Quadrupole moment (field-independent basis, Debye-Ang):
   XX=             -4.9601   YY=             -4.2338   ZZ=              9.1939
   XY=              0.1684   XZ=             -0.5996   YZ=              0.1803
 Octapole moment (field-independent basis, Debye-Ang**2):
  XXX=            183.9190  YYY=            -22.8264  ZZZ=              5.1392  XYY=             -2.0839
  XXY=             -2.5916  XXZ=              9.0134  XZZ=             -0.2887  YZZ=              4.0221
  YYZ=             -4.5994  XYZ=             -3.5705
 Hexadecapole moment (field-independent basis, Debye-Ang**3):
 XXXX=          -4148.3393 YYYY=          -1420.3163 ZZZZ=           -129.7014 XXXY=            180.8046
 XXXZ=            -60.3702 YYYX=            -40.7958 YYYZ=              0.6190 ZZZX=             -0.8694
 ZZZY=             -5.6656 XXYY=           -836.0959 XXZZ=           -603.4291 YYZZ=           -241.3642
 XXYZ=              5.7498 YYXZ=              3.3102 ZZXY=             20.0086
 N-N= 9.984382996683D+02 E-N=-4.581104520068D+03  KE= 1.095712215092D+03
 Unable to Open any file for archive entry.
 1\1\GINC-N2\SP\RB3LYP TD-FC\6-311++G(d,p)\C9H3N1O4S1\HPCMGAC13\11-Sep-
 2025\0\\# td=(50-50,nstates=3) b3lyp/6-311++g(d,p) geom=connectivity\\
 Title Card Required\\0,1\C,0,-0.419527,0.038001,0.033814\C,0,0.88908,0
 .447369,0.009901\C,0,2.165706,-0.229276,-0.009639\C,0,3.106476,0.74617
 3,0.086643\C,0,-1.596426,0.853606,-0.103802\C,0,-2.661022,0.020575,-0.
 047717\O,0,-2.313399,-1.298381,0.158751\C,0,-0.927151,-1.351224,0.2610
 29\O,0,-0.37849,-2.372092,0.562014\C,0,1.223607,1.916651,0.068685\O,0,
 0.520353,2.880531,0.085442\O,0,2.607493,2.019037,0.138396\H,0,4.182652
 ,0.668149,0.088257\S,0,2.626552,-1.895049,-0.39873\H,0,1.621132,-2.497
 936,0.269749\C,0,-4.039537,0.306855,-0.17802\N,0,-5.162179,0.558104,-0
 .286457\H,0,-1.62825,1.918706,-0.255302\\Version=ES64L-G16RevC.02\Stat
 e=1-A\HF=-1098.7534622\RMSD=8.072e-09\PG=C01 [X(C9H3N1O4S1)]\\@
 The archive entry for this job was punched.


 PICNIC:  A SNACK IN THE GRASS.
 Job cpu time:       0 days  0 hours 27 minutes 41.3 seconds.
 Elapsed time:       0 days  0 hours  3 minutes 32.1 seconds.
 File lengths (MBytes):  RWF=    722 Int=      0 D2E=      0 Chk=     34 Scr=      2
 Normal termination of Gaussian 16 at Thu Sep 11 00:11:00 2025.
