 Entering Gaussian System, Link 0=g16
 Input=mfthreeENERGY.gjf
 Output=mfthreeENERGY.log
 Initial command:
 /hpc/softwares/Gaussian/g16/l1.exe "/hpc/home/hpcmgac13/pbs.11209.admin1.x8z/Gau-348675.inp" -scrdir="/hpc/home/hpcmgac13/pbs.11209.admin1.x8z/"
 Default linda workers: n2
 Default is to use   2 SMP processors on each worker.
 Entering Link 1 = /hpc/softwares/Gaussian/g16/l1.exe PID=    348676.
  
 Copyright (c) 1988-2021, Gaussian, Inc.  All Rights Reserved.
  
 This is part of the Gaussian(R) 16 program.  It is based on
 the Gaussian(R) 09 system (copyright 2009, Gaussian, Inc.),
 the Gaussian(R) 03 system (copyright 2003, Gaussian, Inc.),
 the Gaussian(R) 98 system (copyright 1998, Gaussian, Inc.),
 the Gaussian(R) 94 system (copyright 1995, Gaussian, Inc.),
 the Gaussian 92(TM) system (copyright 1992, Gaussian, Inc.),
 the Gaussian 90(TM) system (copyright 1990, Gaussian, Inc.),
 the Gaussian 88(TM) system (copyright 1988, Gaussian, Inc.),
 the Gaussian 86(TM) system (copyright 1986, Carnegie Mellon
 University), and the Gaussian 82(TM) system (copyright 1983,
 Carnegie Mellon University). Gaussian is a federally registered
 trademark of Gaussian, Inc.
  
 This software contains proprietary and confidential information,
 including trade secrets, belonging to Gaussian, Inc.
  
 This software is provided under written license and may be
 used, copied, transmitted, or stored only in accord with that
 written license.
  
 The following legend is applicable only to US Government
 contracts under FAR:
  
                    RESTRICTED RIGHTS LEGEND
  
 Use, reproduction and disclosure by the US Government is
 subject to restrictions as set forth in subparagraphs (a)
 and (c) of the Commercial Computer Software - Restricted
 Rights clause in FAR 52.227-19.
  
 Gaussian, Inc.
 340 Quinnipiac St., Bldg. 40, Wallingford CT 06492
  
  
 ---------------------------------------------------------------
 Warning -- This program may not be used in any manner that
 competes with the business of Gaussian, Inc. or will provide
 assistance to any competitor of Gaussian, Inc.  The licensee
 of this program is prohibited from giving any competitor of
 Gaussian, Inc. access to this program.  By using this program,
 the user acknowledges that Gaussian, Inc. is engaged in the
 business of creating and licensing software in the field of
 computational chemistry and represents and warrants to the
 licensee that it is not a competitor of Gaussian, Inc. and that
 it will not use this program in any manner prohibited above.
 ---------------------------------------------------------------
  

 Cite this work as:
 Gaussian 16, Revision C.02,
 M. J. Frisch, G. W. Trucks, H. B. Schlegel, G. E. Scuseria, 
 M. A. Robb, J. R. Cheeseman, G. Scalmani, V. Barone, 
 G. A. Petersson, H. Nakatsuji, X. Li, M. Caricato, A. V. Marenich, 
 J. Bloino, B. G. Janesko, R. Gomperts, B. Mennucci, H. P. Hratchian, 
 J. V. Ortiz, A. F. Izmaylov, J. L. Sonnenberg, D. Williams-Young, 
 F. Ding, F. Lipparini, F. Egidi, J. Goings, B. Peng, A. Petrone, 
 T. Henderson, D. Ranasinghe, V. G. Zakrzewski, J. Gao, N. Rega, 
 G. Zheng, W. Liang, M. Hada, M. Ehara, K. Toyota, R. Fukuda, 
 J. Hasegawa, M. Ishida, T. Nakajima, Y. Honda, O. Kitao, H. Nakai, 
 T. Vreven, K. Throssell, J. A. Montgomery, Jr., J. E. Peralta, 
 F. Ogliaro, M. J. Bearpark, J. J. Heyd, E. N. Brothers, K. N. Kudin, 
 V. N. Staroverov, T. A. Keith, R. Kobayashi, J. Normand, 
 K. Raghavachari, A. P. Rendell, J. C. Burant, S. S. Iyengar, 
 J. Tomasi, M. Cossi, J. M. Millam, M. Klene, C. Adamo, R. Cammi, 
 J. W. Ochterski, R. L. Martin, K. Morokuma, O. Farkas, 
 J. B. Foresman, and D. J. Fox, Gaussian, Inc., Wallingford CT, 2019.
 
 ******************************************
 Gaussian 16:  ES64L-G16RevC.02  7-Dec-2021
                17-Jun-2025 
 ******************************************
 SetLPE:    new flags="-opt 'Tsnet.Node.lindarsharg: ssh'  -nodelist 'n2.head.cm.mguif.local' -env GAUSS_MDEF=1342177280 -env GAUSS_EXEDIR="/hpc/softwares/Gaussian/g16/bsd:/hpc/softwares/Gaussian/g16""
 Will use up to    1 processors via Linda.
 -----------------------------------------------------------
 # td=(50-50,nstates=3) b3lyp/6-31++g(d,p) geom=connectivity
 -----------------------------------------------------------
 1/38=1,57=2,172=1/1;
 2/12=2,17=6,18=5,40=1/2;
 3/5=1,6=6,7=1111,11=9,25=1,30=1,74=-5/1,2,3,8;
 4//1;
 5/5=2,38=5/2;
 8/6=1,10=2,108=3/1;
 9/41=3,42=1,48=2,70=2/14;
 6/7=2,8=2,9=2,10=2/1;
 99/5=1,9=1/99;
 ----------------
 MF3 OPTIMIZATION
 ----------------
 Symbolic Z-matrix:
 Charge =  0 Multiplicity = 1
 C                     0.37104   0.12555  -0.0059 
 C                    -0.99454  -0.03498   0.00896 
 C                    -2.07316   0.90574   0.14405 
 C                    -3.24771   0.23829   0.10806 
 C                     1.44566  -0.82419   0.08939 
 C                     2.60805  -0.13169   0.02569 
 O                     2.46369   1.19968  -0.14234 
 C                     1.06159   1.44693  -0.17933 
 O                     0.6522    2.5492   -0.38536 
 C                    -1.6945   -1.35437  -0.15957 
 O                    -1.26846  -2.45186  -0.38744 
 O                    -3.07009  -1.11023  -0.08347 
 H                    -4.26204   0.58771   0.22693 
 F                     3.83947  -0.56297   0.13727 
 F                     1.36856  -2.13312   0.32734 
 F                    -1.96528   2.21723   0.37694 
 
                          Input orientation:                          
 ---------------------------------------------------------------------
 Center     Atomic      Atomic             Coordinates (Angstroms)
 Number     Number       Type             X           Y           Z
 ---------------------------------------------------------------------
      1          6           0        0.371042    0.125547   -0.005900
      2          6           0       -0.994541   -0.034980    0.008955
      3          6           0       -2.073162    0.905739    0.144051
      4          6           0       -3.247706    0.238287    0.108064
      5          6           0        1.445664   -0.824185    0.089391
      6          6           0        2.608050   -0.131685    0.025694
      7          8           0        2.463686    1.199676   -0.142339
      8          6           0        1.061590    1.446928   -0.179328
      9          8           0        0.652195    2.549203   -0.385362
     10          6           0       -1.694504   -1.354372   -0.159574
     11          8           0       -1.268456   -2.451856   -0.387444
     12          8           0       -3.070092   -1.110232   -0.083474
     13          1           0       -4.262041    0.587710    0.226932
     14          9           0        3.839465   -0.562971    0.137265
     15          9           0        1.368564   -2.133115    0.327341
     16          9           0       -1.965275    2.217229    0.376938
 ---------------------------------------------------------------------
                    Distance matrix (angstroms):
                    1          2          3          4          5
     1  C    0.000000
     2  C    1.375066   0.000000
     3  C    2.570081   1.437577   0.000000
     4  C    3.622297   2.271838   1.351422   0.000000
     5  C    1.437318   2.565914   3.921449   4.812163   0.000000
     6  C    2.251971   3.603928   4.796249   5.868010   1.354531
     7  O    2.356168   3.675133   4.555371   5.797152   2.277297
     8  C    1.500994   2.541491   3.197519   4.484801   2.318982
     9  O    2.469240   3.089535   3.226271   4.559937   3.497818
    10  C    2.545635   1.503045   2.311638   2.240676   3.194329
    11  O    3.078398   2.464437   3.493348   3.376363   3.200489
    12  O    3.657126   2.339364   2.260481   1.373585   4.528107
    13  H    4.661895   3.333439   2.213414   1.079399   5.881349
    14  F    3.538999   4.864448   6.092316   7.132381   2.408487
    15  F    2.491516   3.176131   4.594965   5.194380   1.332615
    16  F    3.159126   2.479956   1.336369   2.373422   4.579016
                    6          7          8          9         10
     6  C    0.000000
     7  O    1.349666   0.000000
     8  C    2.219367   1.424210   0.000000
     9  O    3.343874   2.271956   1.193761   0.000000
    10  C    4.476746   4.879959   3.929851   4.560249   0.000000
    11  O    4.536648   5.227107   4.546751   5.357191   1.199130
    12  O    5.762878   5.996819   4.859944   5.228577   1.399156
    13  H    6.910584   6.763599   5.407805   5.326544   3.242424
    14  F    1.309518   2.253413   3.443329   4.485249   5.598146
    15  F    2.373402   3.539405   3.628726   4.790118   3.197798
    16  F    5.153258   4.573922   3.172492   2.746353   3.621808
                   11         12         13         14         15
    11  O    0.000000
    12  O    2.266770   0.000000
    13  H    4.310217   2.097642   0.000000
    14  F    5.471203   6.934710   8.183307   0.000000
    15  F    2.750707   4.573481   6.254333   2.933740   0.000000
    16  F    4.782279   3.536184   2.820101   6.440649   5.481098
                   16
    16  F    0.000000
 Stoichiometry    C8HF3O4
 Framework group  C1[X(C8HF3O4)]
 Deg. of freedom    42
 Full point group                 C1      NOp   1
 Largest Abelian subgroup         C1      NOp   1
 Largest concise Abelian subgroup C1      NOp   1
                         Standard orientation:                         
 ---------------------------------------------------------------------
 Center     Atomic      Atomic             Coordinates (Angstroms)
 Number     Number       Type             X           Y           Z
 ---------------------------------------------------------------------
      1          6           0       -0.371042    0.125547    0.005900
      2          6           0        0.994541   -0.034980   -0.008955
      3          6           0        2.073162    0.905739   -0.144051
      4          6           0        3.247706    0.238287   -0.108064
      5          6           0       -1.445664   -0.824185   -0.089391
      6          6           0       -2.608050   -0.131685   -0.025694
      7          8           0       -2.463686    1.199676    0.142339
      8          6           0       -1.061590    1.446928    0.179328
      9          8           0       -0.652195    2.549203    0.385362
     10          6           0        1.694504   -1.354372    0.159574
     11          8           0        1.268456   -2.451856    0.387444
     12          8           0        3.070092   -1.110232    0.083474
     13          1           0        4.262041    0.587710   -0.226932
     14          9           0       -3.839465   -0.562971   -0.137265
     15          9           0       -1.368564   -2.133115   -0.327341
     16          9           0        1.965275    2.217229   -0.376938
 ---------------------------------------------------------------------
 Rotational constants (GHZ):           0.9973636           0.4834118           0.3305123
 Standard basis: 6-31++G(d,p) (6D, 7F)
 There are   291 symmetry adapted cartesian basis functions of A   symmetry.
 There are   291 symmetry adapted basis functions of A   symmetry.
   291 basis functions,   488 primitive gaussians,   291 cartesian basis functions
    54 alpha electrons       54 beta electrons
       nuclear repulsion energy       989.3325539499 Hartrees.
 NAtoms=   16 NActive=   16 NUniq=   16 SFac= 1.00D+00 NAtFMM=   60 NAOKFM=F Big=F
 Integral buffers will be    131072 words long.
 Regular integral format.
 Two-electron integral symmetry is turned on.
 One-electron integrals computed using PRISM.
 NBasis=   291 RedAO= T EigKep=  3.09D-06  NBF=   291
 NBsUse=   290 1.00D-06 EigRej=  4.18D-07 NBFU=   290
 ExpMin= 3.60D-02 ExpMax= 7.00D+03 ExpMxC= 1.05D+03 IAcc=3 IRadAn=         5 AccDes= 0.00D+00
 Harris functional with IExCor=  402 and IRadAn=       5 diagonalized for initial guess.
 HarFok:  IExCor=  402 AccDes= 0.00D+00 IRadAn=         5 IDoV= 1 UseB2=F ITyADJ=14
 ICtDFT=  3500011 ScaDFX=  1.000000  1.000000  1.000000  1.000000
 FoFCou: FMM=F IPFlag=           0 FMFlag=      100000 FMFlg1=           0
         NFxFlg=           0 DoJE=T BraDBF=F KetDBF=T FulRan=T
         wScrn=  0.000000 ICntrl=       500 IOpCl=  0 I1Cent=   200000004 NGrid=           0
         NMat0=    1 NMatS0=      1 NMatT0=    0 NMatD0=    1 NMtDS0=    0 NMtDT0=    0
 Petite list used in FoFCou.
 Keep R1 ints in memory in canonical form, NReq=915001593.
 Requested convergence on RMS density matrix=1.00D-08 within 128 cycles.
 Requested convergence on MAX density matrix=1.00D-06.
 Requested convergence on             energy=1.00D-06.
 No special actions if energy rises.
 SCF Done:  E(RB3LYP) =  -905.820247530     A.U. after   17 cycles
            NFock= 17  Conv=0.16D-08     -V/T= 2.0084
 DoSCS=F DFT=T ScalE2(SS,OS)=  1.000000  1.000000
 ExpMin= 3.60D-02 ExpMax= 7.00D+03 ExpMxC= 1.05D+03 IAcc=3 IRadAn=         5 AccDes= 0.00D+00
 HarFok:  IExCor=  205 AccDes= 0.00D+00 IRadAn=         5 IDoV=-2 UseB2=F ITyADJ=14
 ICtDFT= 12500011 ScaDFX=  1.000000  1.000000  1.000000  1.000000
 Range of M.O.s used for correlation:    16   290
 NBasis=   291 NAE=    54 NBE=    54 NFC=    15 NFV=     0
 NROrb=    275 NOA=    39 NOB=    39 NVA=   236 NVB=   236

 **** Warning!!: The largest alpha MO coefficient is  0.12394144D+03


 **** Warning!!: The smallest alpha delta epsilon is  0.95592716D-01

 Orbital symmetries:
       Occupied  (A) (A) (A) (A) (A) (A) (A) (A) (A) (A) (A) (A)
                 (A) (A) (A) (A) (A) (A) (A) (A) (A) (A) (A) (A)
                 (A) (A) (A) (A) (A) (A) (A) (A) (A) (A) (A) (A)
                 (A) (A) (A) (A) (A) (A) (A) (A) (A) (A) (A) (A)
                 (A) (A) (A) (A) (A) (A)
       Virtual   (A) (A) (A) (A) (A) (A) (A) (A) (A) (A) (A) (A)
                 (A) (A) (A) (A) (A) (A) (A) (A) (A) (A) (A) (A)
                 (A) (A) (A) (A) (A) (A) (A) (A) (A) (A) (A) (A)
                 (A) (A) (A) (A) (A) (A) (A) (A) (A) (A) (A) (A)
                 (A) (A) (A) (A) (A) (A) (A) (A) (A) (A) (A) (A)
                 (A) (A) (A) (A) (A) (A) (A) (A) (A) (A) (A) (A)
                 (A) (A) (A) (A) (A) (A) (A) (A) (A) (A) (A) (A)
                 (A) (A) (A) (A) (A) (A) (A) (A) (A) (A) (A) (A)
                 (A) (A) (A) (A) (A) (A) (A) (A) (A) (A) (A) (A)
                 (A) (A) (A) (A) (A) (A) (A) (A) (A) (A) (A) (A)
                 (A) (A) (A) (A) (A) (A) (A) (A) (A) (A) (A) (A)
                 (A) (A) (A) (A) (A) (A) (A) (A) (A) (A) (A) (A)
                 (A) (A) (A) (A) (A) (A) (A) (A) (A) (A) (A) (A)
                 (A) (A) (A) (A) (A) (A) (A) (A) (A) (A) (A) (A)
                 (A) (A) (A) (A) (A) (A) (A) (A) (A) (A) (A) (A)
                 (A) (A) (A) (A) (A) (A) (A) (A) (A) (A) (A) (A)
                 (A) (A) (A) (A) (A) (A) (A) (A) (A) (A) (A) (A)
                 (A) (A) (A) (A) (A) (A) (A) (A) (A) (A) (A) (A)
                 (A) (A) (A) (A) (A) (A) (A) (A) (A) (A) (A) (A)
                 (A) (A) (A) (A) (A) (A) (A) (A)
    24 initial guesses have been made.
 Convergence on wavefunction:    0.001000000000000
 Iteration     1 Dimension    24 NMult     0 NNew     24
 CISAX will form    24 AO SS matrices at one time.
 New state      1 was old state      2
 New state      2 was old state      4
 New state      3 was old state      1
 New state      4 was old state      6
 New state      6 was old state      3
 New state      7 was old state      8
 New state      8 was old state      7
 New state      9 was old state     10
 New state     10 was old state     14
 New state     11 was old state     16
 Iteration     2 Dimension    36 NMult    24 NNew     12
 New state      2 was old state      3
 New state      3 was old state      2
 New state      5 was old state      6
 New state      6 was old state      5
 Iteration     3 Dimension    48 NMult    36 NNew     12
 Iteration     4 Dimension    60 NMult    48 NNew     12
 Iteration     5 Dimension    70 NMult    60 NNew     10
 ***********************************************************************
 Excited states from <AA,BB:AA,BB> singles matrix:
 ***********************************************************************
 
 Ground to excited state transition densities written to RWF  633
 Ground to excited state transition electric dipole moments (Au):
       state          X           Y           Z        Dip. S.      Osc.
         1         0.0000     -0.0000      0.0000      0.0000      0.0000
         2        -1.9789      0.5615      0.0163      4.2316      0.2731
         3         0.0000     -0.0000     -0.0000      0.0000      0.0000
         4         0.0000     -0.0000     -0.0000      0.0000      0.0000
         5         0.2856      0.0135      0.0133      0.0819      0.0066
         6         0.1191     -0.0433      0.0161      0.0163      0.0014
 Ground to excited state transition velocity dipole moments (Au):
       state          X           Y           Z        Dip. S.      Osc.
         1        -0.0000     -0.0000     -0.0000      0.0000      0.0000
         2         0.1815     -0.0636     -0.0013      0.0370      0.2547
         3         0.0000      0.0000     -0.0000      0.0000      0.0000
         4         0.0000      0.0000      0.0000      0.0000      0.0000
         5        -0.0312     -0.0009     -0.0014      0.0010      0.0053
         6        -0.0151      0.0071     -0.0017      0.0003      0.0015
 Ground to excited state transition magnetic dipole moments (Au):
       state          X           Y           Z
         1         0.0000      0.0000      0.0000
         2         0.0004     -0.1419     -0.1598
         3         0.0000     -0.0000      0.0000
         4        -0.0000     -0.0000      0.0000
         5        -0.0243     -0.0462     -0.6020
         6        -0.1121     -0.4624      0.1961
 Ground to excited state transition velocity quadrupole moments (Au):
       state          XX          YY          ZZ          XY          XZ          YZ
         1         0.0000      0.0000     -0.0000      0.0000     -0.0000      0.0000
         2         0.2147     -0.0104      0.0117     -0.0372     -0.0010     -0.0691
         3        -0.0000     -0.0000      0.0000      0.0000      0.0000      0.0000
         4        -0.0000     -0.0000      0.0000     -0.0000      0.0000     -0.0000
         5         0.3081      0.0396     -0.0209      0.0443      0.0006      0.0077
         6        -0.0796     -0.0162      0.0061      0.0016      0.0126      0.0054
 <0|del|b> * <b|rxdel|0> + <0|del|b> * <b|delr+rdel|0>
 Rotatory Strengths (R) in cgs (10**-40 erg-esu-cm/Gauss)
       state          XX          YY          ZZ    R(velocity)    E-M Angle
         1        -0.0000     -0.0000      0.0000     -0.0000       90.00
         2        33.6509    -45.0087     79.2301     22.6241       76.94
         3        -0.0000      0.0000      0.0000     -0.0000       90.00
         4        -0.0000      0.0000      0.0000     -0.0000       90.00
         5         2.4007      4.1487      3.0282      3.1926       85.00
         6       -10.3997      3.5598     -3.9892     -3.6097      102.97
 1/2[<0|r|b>*<b|rxdel|0> + (<0|rxdel|b>*<b|r|0>)*]
 Rotatory Strengths (R) in cgs (10**-40 erg-esu-cm/Gauss)
       state          XX          YY          ZZ     R(length)
         1        -0.0000      0.0000     -0.0000     -0.0000
         2         0.4925     56.3618      1.8441     19.5661
         3        -0.0000     -0.0000      0.0000     -0.0000
         4         0.0000     -0.0000      0.0000      0.0000
         5         4.9162      0.4395      5.6503      3.6687
         6         9.4373    -14.1612     -2.2291     -2.3176
  1/2[<0|del|b>*<b|r|0> + (<0|r|b>*<b|del|0>)*] (Au)
       state          X           Y           Z        Dip. S.   Osc.(frdel)
         1        -0.0000      0.0000     -0.0000      0.0000      0.0000
         2        -0.3592     -0.0357     -0.0000      0.3949      0.2633
         3         0.0000     -0.0000      0.0000      0.0000      0.0000
         4         0.0000     -0.0000     -0.0000      0.0000      0.0000
         5        -0.0089     -0.0000     -0.0000      0.0089      0.0060
         6        -0.0018     -0.0003     -0.0000      0.0021      0.0014

 Excitation energies and oscillator strengths:
 
 Excited State   1:      Triplet-A      0.7552 eV 1641.65 nm  f=0.0000  <S**2>=2.000
      54 -> 55         0.75728
      54 <- 55         0.29162
 This state for optimization and/or second-order correction.
 Total Energy, E(TD-HF/TD-DFT) =  -905.792492972    
 Copying the excited state density for this state as the 1-particle RhoCI density.
 
 Excited State   2:      Singlet-A      2.6347 eV  470.58 nm  f=0.2731  <S**2>=0.000
      54 -> 55         0.70907
      54 <- 55        -0.15158
 
 Excited State   3:      Triplet-A      2.7026 eV  458.76 nm  f=0.0000  <S**2>=2.000
      53 -> 55         0.69565
 
 Excited State   4:      Triplet-A      3.1346 eV  395.53 nm  f=0.0000  <S**2>=2.000
      52 -> 55         0.69444
 
 Excited State   5:      Singlet-A      3.3069 eV  374.92 nm  f=0.0066  <S**2>=0.000
      53 -> 55         0.69594
 
 Excited State   6:      Singlet-A      3.4510 eV  359.27 nm  f=0.0014  <S**2>=0.000
      52 -> 55         0.69702
 SavETr:  write IOETrn=   770 NScale= 10 NData=  16 NLR=1 NState=    6 LETran=     118.

 **********************************************************************

            Population analysis using the SCF Density.

 **********************************************************************

 Orbital symmetries:
       Occupied  (A) (A) (A) (A) (A) (A) (A) (A) (A) (A) (A) (A)
                 (A) (A) (A) (A) (A) (A) (A) (A) (A) (A) (A) (A)
                 (A) (A) (A) (A) (A) (A) (A) (A) (A) (A) (A) (A)
                 (A) (A) (A) (A) (A) (A) (A) (A) (A) (A) (A) (A)
                 (A) (A) (A) (A) (A) (A)
       Virtual   (A) (A) (A) (A) (A) (A) (A) (A) (A) (A) (A) (A)
                 (A) (A) (A) (A) (A) (A) (A) (A) (A) (A) (A) (A)
                 (A) (A) (A) (A) (A) (A) (A) (A) (A) (A) (A) (A)
                 (A) (A) (A) (A) (A) (A) (A) (A) (A) (A) (A) (A)
                 (A) (A) (A) (A) (A) (A) (A) (A) (A) (A) (A) (A)
                 (A) (A) (A) (A) (A) (A) (A) (A) (A) (A) (A) (A)
                 (A) (A) (A) (A) (A) (A) (A) (A) (A) (A) (A) (A)
                 (A) (A) (A) (A) (A) (A) (A) (A) (A) (A) (A) (A)
                 (A) (A) (A) (A) (A) (A) (A) (A) (A) (A) (A) (A)
                 (A) (A) (A) (A) (A) (A) (A) (A) (A) (A) (A) (A)
                 (A) (A) (A) (A) (A) (A) (A) (A) (A) (A) (A) (A)
                 (A) (A) (A) (A) (A) (A) (A) (A) (A) (A) (A) (A)
                 (A) (A) (A) (A) (A) (A) (A) (A) (A) (A) (A) (A)
                 (A) (A) (A) (A) (A) (A) (A) (A) (A) (A) (A) (A)
                 (A) (A) (A) (A) (A) (A) (A) (A) (A) (A) (A) (A)
                 (A) (A) (A) (A) (A) (A) (A) (A) (A) (A) (A) (A)
                 (A) (A) (A) (A) (A) (A) (A) (A) (A) (A) (A) (A)
                 (A) (A) (A) (A) (A) (A) (A) (A) (A) (A) (A) (A)
                 (A) (A) (A) (A) (A) (A) (A) (A) (A) (A) (A) (A)
                 (A) (A) (A) (A) (A) (A) (A) (A)
 The electronic state is 1-A.
 Alpha  occ. eigenvalues --  -24.80516 -24.76754 -24.76205 -19.26979 -19.25247
 Alpha  occ. eigenvalues --  -19.20871 -19.19409 -10.39567 -10.38341 -10.36844
 Alpha  occ. eigenvalues --  -10.33091 -10.32250 -10.30287 -10.29047 -10.28172
 Alpha  occ. eigenvalues --   -1.32437  -1.27645  -1.27098  -1.17935  -1.16246
 Alpha  occ. eigenvalues --   -1.10164  -1.08385  -0.90375  -0.85352  -0.79347
 Alpha  occ. eigenvalues --   -0.76184  -0.70447  -0.66264  -0.64270  -0.62979
 Alpha  occ. eigenvalues --   -0.61514  -0.58286  -0.57089  -0.56589  -0.54531
 Alpha  occ. eigenvalues --   -0.52778  -0.51686  -0.50765  -0.50017  -0.49665
 Alpha  occ. eigenvalues --   -0.49190  -0.48937  -0.48233  -0.47458  -0.44963
 Alpha  occ. eigenvalues --   -0.42788  -0.41567  -0.40915  -0.40031  -0.37468
 Alpha  occ. eigenvalues --   -0.34262  -0.32358  -0.30460  -0.25025
 Alpha virt. eigenvalues --   -0.15466  -0.02500  -0.02098  -0.01449  -0.00507
 Alpha virt. eigenvalues --    0.00110   0.00912   0.01670   0.02907   0.03420
 Alpha virt. eigenvalues --    0.04931   0.05378   0.05702   0.06672   0.07340
 Alpha virt. eigenvalues --    0.07471   0.08509   0.08690   0.09260   0.09738
 Alpha virt. eigenvalues --    0.10323   0.10794   0.11151   0.11402   0.11492
 Alpha virt. eigenvalues --    0.12749   0.13049   0.13584   0.13964   0.15436
 Alpha virt. eigenvalues --    0.15823   0.16435   0.16738   0.17433   0.18361
 Alpha virt. eigenvalues --    0.18482   0.18805   0.19413   0.20889   0.21352
 Alpha virt. eigenvalues --    0.21680   0.23636   0.23792   0.24420   0.25565
 Alpha virt. eigenvalues --    0.25570   0.26359   0.26808   0.27445   0.28319
 Alpha virt. eigenvalues --    0.28399   0.28673   0.28790   0.30049   0.30784
 Alpha virt. eigenvalues --    0.31252   0.31919   0.32439   0.33352   0.33845
 Alpha virt. eigenvalues --    0.34295   0.34826   0.35766   0.36255   0.37449
 Alpha virt. eigenvalues --    0.37641   0.37864   0.38470   0.39654   0.40049
 Alpha virt. eigenvalues --    0.40457   0.41640   0.42245   0.44119   0.45199
 Alpha virt. eigenvalues --    0.45607   0.47461   0.48125   0.49657   0.51330
 Alpha virt. eigenvalues --    0.52941   0.61885   0.64353   0.65307   0.66731
 Alpha virt. eigenvalues --    0.67766   0.69048   0.69836   0.72418   0.73204
 Alpha virt. eigenvalues --    0.75400   0.77319   0.78697   0.79787   0.81182
 Alpha virt. eigenvalues --    0.82354   0.89002   0.90870   0.93559   0.98294
 Alpha virt. eigenvalues --    0.98846   0.99786   1.00506   1.04428   1.07393
 Alpha virt. eigenvalues --    1.09177   1.11076   1.11507   1.13344   1.14320
 Alpha virt. eigenvalues --    1.15520   1.19406   1.21101   1.22488   1.23415
 Alpha virt. eigenvalues --    1.24127   1.26034   1.26856   1.28620   1.29162
 Alpha virt. eigenvalues --    1.29307   1.29640   1.30653   1.31597   1.32633
 Alpha virt. eigenvalues --    1.33824   1.34611   1.36192   1.36508   1.37723
 Alpha virt. eigenvalues --    1.41244   1.41694   1.43498   1.45273   1.48063
 Alpha virt. eigenvalues --    1.50790   1.56386   1.57190   1.58316   1.59281
 Alpha virt. eigenvalues --    1.61156   1.61557   1.62093   1.63882   1.64667
 Alpha virt. eigenvalues --    1.65404   1.67575   1.69107   1.70201   1.71060
 Alpha virt. eigenvalues --    1.72403   1.72925   1.74184   1.75161   1.76576
 Alpha virt. eigenvalues --    1.77301   1.79689   1.80027   1.80942   1.81816
 Alpha virt. eigenvalues --    1.83394   1.84672   1.86418   1.87269   1.87982
 Alpha virt. eigenvalues --    1.90788   1.92828   1.93962   1.95899   1.97299
 Alpha virt. eigenvalues --    1.98524   1.99160   2.00608   2.03381   2.05529
 Alpha virt. eigenvalues --    2.07491   2.08671   2.10614   2.14704   2.15730
 Alpha virt. eigenvalues --    2.17459   2.24082   2.25312   2.25922   2.28103
 Alpha virt. eigenvalues --    2.29811   2.33872   2.36329   2.36462   2.40205
 Alpha virt. eigenvalues --    2.41586   2.45371   2.47652   2.48824   2.51799
 Alpha virt. eigenvalues --    2.56570   2.60429   2.61738   2.64771   2.65960
 Alpha virt. eigenvalues --    2.66662   2.67575   2.74261   2.75859   2.77974
 Alpha virt. eigenvalues --    2.82822   2.89079   2.91521   2.92279   2.95994
 Alpha virt. eigenvalues --    3.05328   3.07688   3.11047   3.14581   3.22297
 Alpha virt. eigenvalues --    3.23182   3.25175   3.30101   3.38298   3.46936
 Alpha virt. eigenvalues --    3.59278   4.21915   4.23287   4.24459   4.25049
 Alpha virt. eigenvalues --    4.31101   4.34970   4.55971   4.58943   4.64393
 Alpha virt. eigenvalues --    4.77732   4.79418   4.90796   6.10447   6.50263
 Alpha virt. eigenvalues --    7.08064
          Condensed to atoms (all electrons):
               1          2          3          4          5          6
     1  C    9.271297  -0.530177  -0.854025   0.273103  -2.919968   0.448342
     2  C   -0.530177   9.892756  -3.742166   1.049917  -0.523661   0.183160
     3  C   -0.854025  -3.742166  13.592036  -2.745373   0.799374   0.097742
     4  C    0.273103   1.049917  -2.745373   7.736154   0.090449  -0.109090
     5  C   -2.919968  -0.523661   0.799374   0.090449  12.324371  -1.843745
     6  C    0.448342   0.183160   0.097742  -0.109090  -1.843745   6.943270
     7  O   -0.145888   0.037648   0.020689   0.001337  -0.037376  -0.073665
     8  C   -0.342321   0.146723  -1.143897   0.040057  -0.385138  -0.611356
     9  O   -0.031653   0.058208   0.011819  -0.002589  -0.207163   0.135193
    10  C    0.124062  -0.812768   0.166839  -0.866599  -1.162313   0.073096
    11  O    0.058941  -0.027016  -0.245157   0.160569   0.012841  -0.002868
    12  O   -0.005981  -0.129134   0.051395  -0.235788   0.011031   0.001510
    13  H    0.009270   0.035153  -0.240011   0.527668   0.004309  -0.000859
    14  F   -0.026596  -0.012769  -0.002982   0.000050  -0.154796   0.157304
    15  F   -0.034466   0.033865   0.005903  -0.006407  -0.053350   0.003036
    16  F    0.024949   0.004601  -0.091137   0.031560   0.004626  -0.006482
               7          8          9         10         11         12
     1  C   -0.145888  -0.342321  -0.031653   0.124062   0.058941  -0.005981
     2  C    0.037648   0.146723   0.058208  -0.812768  -0.027016  -0.129134
     3  C    0.020689  -1.143897   0.011819   0.166839  -0.245157   0.051395
     4  C    0.001337   0.040057  -0.002589  -0.866599   0.160569  -0.235788
     5  C   -0.037376  -0.385138  -0.207163  -1.162313   0.012841   0.011031
     6  C   -0.073665  -0.611356   0.135193   0.073096  -0.002868   0.001510
     7  O    8.498651   0.162530  -0.066219   0.017661  -0.000264   0.000336
     8  C    0.162530   7.266739   0.269995   0.398455   0.008763   0.012810
     9  O   -0.066219   0.269995   8.281739   0.003007   0.000021  -0.000258
    10  C    0.017661   0.398455   0.003007   7.357499   0.287663   0.323797
    11  O   -0.000264   0.008763   0.000021   0.287663   8.288932  -0.087341
    12  O    0.000336   0.012810  -0.000258   0.323797  -0.087341   8.420839
    13  H    0.000066  -0.002286  -0.000016  -0.000846   0.000585  -0.081892
    14  F   -0.058946   0.079946  -0.001103  -0.000364   0.000131   0.000003
    15  F    0.011140  -0.026063   0.000530   0.002316  -0.021896  -0.000575
    16  F   -0.000676  -0.007036  -0.018774  -0.025042   0.000389   0.005841
              13         14         15         16
     1  C    0.009270  -0.026596  -0.034466   0.024949
     2  C    0.035153  -0.012769   0.033865   0.004601
     3  C   -0.240011  -0.002982   0.005903  -0.091137
     4  C    0.527668   0.000050  -0.006407   0.031560
     5  C    0.004309  -0.154796  -0.053350   0.004626
     6  C   -0.000859   0.157304   0.003036  -0.006482
     7  O    0.000066  -0.058946   0.011140  -0.000676
     8  C   -0.002286   0.079946  -0.026063  -0.007036
     9  O   -0.000016  -0.001103   0.000530  -0.018774
    10  C   -0.000846  -0.000364   0.002316  -0.025042
    11  O    0.000585   0.000131  -0.021896   0.000389
    12  O   -0.081892   0.000003  -0.000575   0.005841
    13  H    0.558434  -0.000005  -0.000132   0.003321
    14  F   -0.000005   9.315901  -0.002722   0.000002
    15  F   -0.000132  -0.002722   9.415878  -0.000107
    16  F    0.003321   0.000002  -0.000107   9.402787
 Mulliken charges:
               1
     1  C    0.681112
     2  C    0.335661
     3  C    0.318952
     4  C    0.054980
     5  C    0.040511
     6  C    0.605411
     7  O   -0.367026
     8  C    0.132077
     9  O   -0.432736
    10  C    0.113536
    11  O   -0.434294
    12  O   -0.286593
    13  H    0.187238
    14  F   -0.293055
    15  F   -0.326952
    16  F   -0.328822
 Sum of Mulliken charges =  -0.00000
 Mulliken charges with hydrogens summed into heavy atoms:
               1
     1  C    0.681112
     2  C    0.335661
     3  C    0.318952
     4  C    0.242218
     5  C    0.040511
     6  C    0.605411
     7  O   -0.367026
     8  C    0.132077
     9  O   -0.432736
    10  C    0.113536
    11  O   -0.434294
    12  O   -0.286593
    14  F   -0.293055
    15  F   -0.326952
    16  F   -0.328822
 Electronic spatial extent (au):  <R**2>=           2916.7627
 Charge=             -0.0000 electrons
 Dipole moment (field-independent basis, Debye):
    X=              1.0823    Y=              0.6904    Z=             -0.7202  Tot=              1.4720
 Quadrupole moment (field-independent basis, Debye-Ang):
   XX=            -72.7304   YY=           -100.0547   ZZ=            -78.3447
   XY=              6.1030   XZ=             -1.0111   YZ=              0.0220
 Traceless Quadrupole moment (field-independent basis, Debye-Ang):
   XX=             10.9795   YY=            -16.3448   ZZ=              5.3653
   XY=              6.1030   XZ=             -1.0111   YZ=              0.0220
 Octapole moment (field-independent basis, Debye-Ang**2):
  XXX=             29.4585  YYY=             -4.1846  ZZZ=             -2.3027  XYY=            -14.3741
  XXY=             13.0137  XXZ=             -5.0388  XZZ=             -9.3388  YZZ=             -1.0641
  YYZ=             -7.1038  XYZ=              4.4389
 Hexadecapole moment (field-independent basis, Debye-Ang**3):
 XXXX=          -2066.4652 YYYY=          -1182.3660 ZZZZ=            -93.8009 XXXY=            110.4762
 XXXZ=            -16.8108 YYYX=             62.2812 YYYZ=              0.7227 ZZZX=              3.1446
 ZZZY=              0.4555 XXYY=           -592.6433 XXZZ=           -383.5351 YYZZ=           -188.7692
 XXYZ=             -0.4336 YYXZ=             -0.9627 ZZXY=              8.4055
 N-N= 9.893325539499D+02 E-N=-4.106376777705D+03  KE= 8.982628982725D+02
 Unable to Open any file for archive entry.
 1\1\GINC-N2\SP\RB3LYP TD-FC\6-31++G(d,p)\C8H1F3O4\HPCMGAC13\17-Jun-202
 5\0\\# td=(50-50,nstates=3) b3lyp/6-31++g(d,p) geom=connectivity\\MF3 
 OPTIMIZATION\\0,1\C,0,0.371042,0.125547,-0.0059\C,0,-0.994541,-0.03498
 ,0.008955\C,0,-2.073162,0.905739,0.144051\C,0,-3.247706,0.238287,0.108
 064\C,0,1.445664,-0.824185,0.089391\C,0,2.60805,-0.131685,0.025694\O,0
 ,2.463686,1.199676,-0.142339\C,0,1.06159,1.446928,-0.179328\O,0,0.6521
 95,2.549203,-0.385362\C,0,-1.694504,-1.354372,-0.159574\O,0,-1.268456,
 -2.451856,-0.387444\O,0,-3.070092,-1.110232,-0.083474\H,0,-4.262041,0.
 58771,0.226932\F,0,3.839465,-0.562971,0.137265\F,0,1.368564,-2.133115,
 0.327341\F,0,-1.965275,2.217229,0.376938\\Version=ES64L-G16RevC.02\Sta
 te=1-A\HF=-905.8202475\RMSD=1.552e-09\PG=C01 [X(C8H1F3O4)]\\@
 The archive entry for this job was punched.


 EVERYTHING'S GOT A MORAL, IF ONLY YOU CAN FIND IT.

                                    -- LEWIS CARROL, ALICE IN WONDERLAND
 Job cpu time:       0 days  0 hours 13 minutes  1.6 seconds.
 Elapsed time:       0 days  0 hours  6 minutes 38.1 seconds.
 File lengths (MBytes):  RWF=    603 Int=      0 D2E=      0 Chk=     24 Scr=      2
 Normal termination of Gaussian 16 at Tue Jun 17 14:46:15 2025.
