 Entering Gaussian System, Link 0=g16
 Input=MNO2andohe.gjf
 Output=MNO2andohe.log
 Initial command:
 /hpc/softwares/Gaussian/g16/l1.exe "/hpc/home/hpcmgac13/pbs.11608.admin1.x8z/Gau-3079448.inp" -scrdir="/hpc/home/hpcmgac13/pbs.11608.admin1.x8z/"
 Default linda workers: n1
 Default is to use   8 SMP processors on each worker.
 Entering Link 1 = /hpc/softwares/Gaussian/g16/l1.exe PID=   3079449.
  
 Copyright (c) 1988-2021, Gaussian, Inc.  All Rights Reserved.
  
 This is part of the Gaussian(R) 16 program.  It is based on
 the Gaussian(R) 09 system (copyright 2009, Gaussian, Inc.),
 the Gaussian(R) 03 system (copyright 2003, Gaussian, Inc.),
 the Gaussian(R) 98 system (copyright 1998, Gaussian, Inc.),
 the Gaussian(R) 94 system (copyright 1995, Gaussian, Inc.),
 the Gaussian 92(TM) system (copyright 1992, Gaussian, Inc.),
 the Gaussian 90(TM) system (copyright 1990, Gaussian, Inc.),
 the Gaussian 88(TM) system (copyright 1988, Gaussian, Inc.),
 the Gaussian 86(TM) system (copyright 1986, Carnegie Mellon
 University), and the Gaussian 82(TM) system (copyright 1983,
 Carnegie Mellon University). Gaussian is a federally registered
 trademark of Gaussian, Inc.
  
 This software contains proprietary and confidential information,
 including trade secrets, belonging to Gaussian, Inc.
  
 This software is provided under written license and may be
 used, copied, transmitted, or stored only in accord with that
 written license.
  
 The following legend is applicable only to US Government
 contracts under FAR:
  
                    RESTRICTED RIGHTS LEGEND
  
 Use, reproduction and disclosure by the US Government is
 subject to restrictions as set forth in subparagraphs (a)
 and (c) of the Commercial Computer Software - Restricted
 Rights clause in FAR 52.227-19.
  
 Gaussian, Inc.
 340 Quinnipiac St., Bldg. 40, Wallingford CT 06492
  
  
 ---------------------------------------------------------------
 Warning -- This program may not be used in any manner that
 competes with the business of Gaussian, Inc. or will provide
 assistance to any competitor of Gaussian, Inc.  The licensee
 of this program is prohibited from giving any competitor of
 Gaussian, Inc. access to this program.  By using this program,
 the user acknowledges that Gaussian, Inc. is engaged in the
 business of creating and licensing software in the field of
 computational chemistry and represents and warrants to the
 licensee that it is not a competitor of Gaussian, Inc. and that
 it will not use this program in any manner prohibited above.
 ---------------------------------------------------------------
  

 Cite this work as:
 Gaussian 16, Revision C.02,
 M. J. Frisch, G. W. Trucks, H. B. Schlegel, G. E. Scuseria, 
 M. A. Robb, J. R. Cheeseman, G. Scalmani, V. Barone, 
 G. A. Petersson, H. Nakatsuji, X. Li, M. Caricato, A. V. Marenich, 
 J. Bloino, B. G. Janesko, R. Gomperts, B. Mennucci, H. P. Hratchian, 
 J. V. Ortiz, A. F. Izmaylov, J. L. Sonnenberg, D. Williams-Young, 
 F. Ding, F. Lipparini, F. Egidi, J. Goings, B. Peng, A. Petrone, 
 T. Henderson, D. Ranasinghe, V. G. Zakrzewski, J. Gao, N. Rega, 
 G. Zheng, W. Liang, M. Hada, M. Ehara, K. Toyota, R. Fukuda, 
 J. Hasegawa, M. Ishida, T. Nakajima, Y. Honda, O. Kitao, H. Nakai, 
 T. Vreven, K. Throssell, J. A. Montgomery, Jr., J. E. Peralta, 
 F. Ogliaro, M. J. Bearpark, J. J. Heyd, E. N. Brothers, K. N. Kudin, 
 V. N. Staroverov, T. A. Keith, R. Kobayashi, J. Normand, 
 K. Raghavachari, A. P. Rendell, J. C. Burant, S. S. Iyengar, 
 J. Tomasi, M. Cossi, J. M. Millam, M. Klene, C. Adamo, R. Cammi, 
 J. W. Ochterski, R. L. Martin, K. Morokuma, O. Farkas, 
 J. B. Foresman, and D. J. Fox, Gaussian, Inc., Wallingford CT, 2019.
 
 ******************************************
 Gaussian 16:  ES64L-G16RevC.02  7-Dec-2021
                 1-Jul-2025 
 ******************************************
 SetLPE:    new flags="-opt 'Tsnet.Node.lindarsharg: ssh'  -nodelist 'n1' -env GAUSS_MDEF=2147483648 -env GAUSS_EXEDIR="/hpc/softwares/Gaussian/g16/bsd:/hpc/softwares/Gaussian/g16""
 Will use up to    1 processors via Linda.
 -----------------------------------------------------------
 # td=(50-50,nstates=3) b3lyp/6-31++g(d,p) geom=connectivity
 -----------------------------------------------------------
 1/38=1,57=2,172=1/1;
 2/12=2,17=6,18=5,40=1/2;
 3/5=1,6=6,7=1111,11=9,25=1,30=1,74=-5/1,2,3,8;
 4//1;
 5/5=2,38=5/2;
 8/6=1,10=2,108=3/1;
 9/41=3,42=1,48=2,70=2/14;
 6/7=2,8=2,9=2,10=2/1;
 99/5=1,9=1/99;
 -------------------
 Title Card Required
 -------------------
 Symbolic Z-matrix:
 Charge =  0 Multiplicity = 1
 C                    -1.27755   0.02486   0.00003 
 C                     0.0867    0.20461  -0.00001 
 C                     1.15708  -0.75155   0.00019 
 C                     2.29465  -0.01556   0.0001 
 C                    -2.33899   0.97151  -0.00016 
 C                    -3.49488   0.24224  0. 
 O                     2.11096   1.33501   0.00001 
 C                     0.72112   1.54671  -0.00005 
 O                     0.24666   2.65309  -0.00005 
 C                    -1.9124   -1.32959   0.00004 
 O                    -1.46049  -2.43636   0.00008 
 O                    -3.31718  -1.11007  -0.00005 
 N                     3.65428  -0.48894  -0.00004 
 O                     3.80144  -1.71654  -0.00036 
 O                     4.55343   0.34958   0.00023 
 H                     1.09052  -1.82798   0.0005 
 H                    -2.25751   2.04671  -0.00046 
 O                    -4.7435    0.66656   0.00011 
 H                    -5.35786  -0.0858   -0.00031 
 
                          Input orientation:                          
 ---------------------------------------------------------------------
 Center     Atomic      Atomic             Coordinates (Angstroms)
 Number     Number       Type             X           Y           Z
 ---------------------------------------------------------------------
      1          6           0       -1.277554    0.024861    0.000034
      2          6           0        0.086704    0.204612   -0.000006
      3          6           0        1.157079   -0.751548    0.000186
      4          6           0        2.294646   -0.015557    0.000097
      5          6           0       -2.338985    0.971510   -0.000164
      6          6           0       -3.494877    0.242236   -0.000002
      7          8           0        2.110955    1.335012    0.000010
      8          6           0        0.721117    1.546711   -0.000046
      9          8           0        0.246661    2.653092   -0.000051
     10          6           0       -1.912396   -1.329591    0.000038
     11          8           0       -1.460490   -2.436360    0.000075
     12          8           0       -3.317182   -1.110068   -0.000052
     13          7           0        3.654279   -0.488938   -0.000037
     14          8           0        3.801442   -1.716538   -0.000362
     15          8           0        4.553429    0.349581    0.000229
     16          1           0        1.090516   -1.827977    0.000498
     17          1           0       -2.257511    2.046712   -0.000460
     18          8           0       -4.743503    0.666559    0.000112
     19          1           0       -5.357863   -0.085799   -0.000307
 ---------------------------------------------------------------------
                    Distance matrix (angstroms):
                    1          2          3          4          5
     1  C    0.000000
     2  C    1.376049   0.000000
     3  C    2.555435   1.435251   0.000000
     4  C    3.572429   2.218892   1.354895   0.000000
     5  C    1.422245   2.544032   3.897614   4.737598   0.000000
     6  C    2.227953   3.581779   4.756921   5.795260   1.366721
     7  O    3.632972   2.318490   2.294256   1.363004   4.464762
     8  C    2.512113   1.484490   2.339243   2.217358   3.113692
     9  O    3.038228   2.453699   3.524264   3.363916   3.084361
    10  C    1.495849   2.519956   3.123429   4.407481   2.340309
    11  O    2.468010   3.060807   3.112918   4.467811   3.519280
    12  O    2.334126   3.648948   4.488602   5.717567   2.299964
    13  N    4.958525   3.634364   2.510970   1.439685   6.168640
    14  O    5.369234   4.182116   2.814935   2.272393   6.703018
    15  O    5.840018   4.469077   3.570389   2.288105   6.920417
    16  H    3.006786   2.266949   1.078485   2.175959   4.427031
    17  H    2.246819   2.981388   4.414712   4.997508   1.078284
    18  O    3.524852   4.852246   6.068599   7.071126   2.423778
    19  H    4.081809   5.452307   6.548869   7.652831   3.198676
                    6          7          8          9         10
     6  C    0.000000
     7  O    5.711349   0.000000
     8  C    4.413192   1.405868   0.000000
     9  O    4.450992   2.283184   1.203822   0.000000
    10  C    2.230445   4.825708   3.899808   4.530264   0.000000
    11  O    3.363571   5.194080   4.541394   5.368136   1.195473
    12  O    1.363929   5.953410   4.833874   5.182890   1.421835
    13  N    7.186449   2.389277   3.570337   4.635107   5.629793
    14  O    7.554672   3.488510   4.487449   5.632951   5.726925
    15  O    8.049022   2.633772   4.014939   4.884098   6.680308
    16  H    5.031065   3.323522   3.394845   4.559832   3.043989
    17  H    2.187969   4.426061   3.020302   2.576543   3.393895
    18  O    1.318756   6.886975   5.535046   5.371038   3.464070
    19  H    1.891646   7.602759   6.294369   6.237965   3.663095
                   11         12         13         14         15
    11  O    0.000000
    12  O    2.281744   0.000000
    13  N    5.472962   6.999076   0.000000
    14  O    5.310939   7.144411   1.236389   0.000000
    15  O    6.627872   8.004817   1.229465   2.198712   0.000000
    16  H    2.622549   4.465780   2.892388   2.713216   4.090663
    17  H    4.553370   3.329889   6.432634   7.132528   7.019199
    18  O    4.517331   2.278332   8.476905   8.871034   9.302334
    19  H    4.551335   2.283310   9.021154   9.303342   9.920850
                   16         17         18         19
    16  H    0.000000
    17  H    5.120791   0.000000
    18  O    6.344958   2.843410   0.000000
    19  H    6.679579   3.762949   0.971329   0.000000
 Stoichiometry    C8H3NO7
 Framework group  C1[X(C8H3NO7)]
 Deg. of freedom    51
 Full point group                 C1      NOp   1
 Largest Abelian subgroup         C1      NOp   1
 Largest concise Abelian subgroup C1      NOp   1
                         Standard orientation:                         
 ---------------------------------------------------------------------
 Center     Atomic      Atomic             Coordinates (Angstroms)
 Number     Number       Type             X           Y           Z
 ---------------------------------------------------------------------
      1          6           0        1.277554    0.024861   -0.000034
      2          6           0       -0.086704    0.204612    0.000006
      3          6           0       -1.157079   -0.751548   -0.000186
      4          6           0       -2.294646   -0.015557   -0.000097
      5          6           0        2.338985    0.971510    0.000164
      6          6           0        3.494877    0.242236    0.000002
      7          8           0       -2.110955    1.335012   -0.000010
      8          6           0       -0.721117    1.546711    0.000046
      9          8           0       -0.246661    2.653092    0.000051
     10          6           0        1.912396   -1.329591   -0.000038
     11          8           0        1.460490   -2.436360   -0.000075
     12          8           0        3.317182   -1.110068    0.000052
     13          7           0       -3.654279   -0.488938    0.000037
     14          8           0       -3.801442   -1.716538    0.000362
     15          8           0       -4.553429    0.349581   -0.000229
     16          1           0       -1.090516   -1.827977   -0.000498
     17          1           0        2.257511    2.046712    0.000460
     18          8           0        4.743503    0.666559   -0.000112
     19          1           0        5.357863   -0.085799    0.000307
 ---------------------------------------------------------------------
 Rotational constants (GHZ):           1.2889128           0.2825844           0.2317705
 Standard basis: 6-31++G(d,p) (6D, 7F)
 There are   322 symmetry adapted cartesian basis functions of A   symmetry.
 There are   322 symmetry adapted basis functions of A   symmetry.
   322 basis functions,   536 primitive gaussians,   322 cartesian basis functions
    57 alpha electrons       57 beta electrons
       nuclear repulsion energy      1045.6472275847 Hartrees.
 NAtoms=   19 NActive=   19 NUniq=   19 SFac= 1.00D+00 NAtFMM=   60 NAOKFM=F Big=F
 Integral buffers will be    131072 words long.
 Regular integral format.
 Two-electron integral symmetry is turned on.
 One-electron integrals computed using PRISM.
 NBasis=   322 RedAO= T EigKep=  1.05D-06  NBF=   322
 NBsUse=   321 1.00D-06 EigRej=  1.49D-07 NBFU=   321
 ExpMin= 3.60D-02 ExpMax= 5.48D+03 ExpMxC= 8.25D+02 IAcc=3 IRadAn=         5 AccDes= 0.00D+00
 Harris functional with IExCor=  402 and IRadAn=       5 diagonalized for initial guess.
 HarFok:  IExCor=  402 AccDes= 0.00D+00 IRadAn=         5 IDoV= 1 UseB2=F ITyADJ=14
 ICtDFT=  3500011 ScaDFX=  1.000000  1.000000  1.000000  1.000000
 FoFCou: FMM=F IPFlag=           0 FMFlag=      100000 FMFlg1=           0
         NFxFlg=           0 DoJE=T BraDBF=F KetDBF=T FulRan=T
         wScrn=  0.000000 ICntrl=       500 IOpCl=  0 I1Cent=   200000004 NGrid=           0
         NMat0=    1 NMatS0=      1 NMatT0=    0 NMatD0=    1 NMtDS0=    0 NMtDT0=    0
 Petite list used in FoFCou.
 Requested convergence on RMS density matrix=1.00D-08 within 128 cycles.
 Requested convergence on MAX density matrix=1.00D-06.
 Requested convergence on             energy=1.00D-06.
 No special actions if energy rises.
 SCF Done:  E(RB3LYP) =  -887.880576837     A.U. after   16 cycles
            NFock= 16  Conv=0.77D-08     -V/T= 2.0088
 DoSCS=F DFT=T ScalE2(SS,OS)=  1.000000  1.000000
 ExpMin= 3.60D-02 ExpMax= 5.48D+03 ExpMxC= 8.25D+02 IAcc=3 IRadAn=         5 AccDes= 0.00D+00
 HarFok:  IExCor=  205 AccDes= 0.00D+00 IRadAn=         5 IDoV=-2 UseB2=F ITyADJ=14
 ICtDFT= 12500011 ScaDFX=  1.000000  1.000000  1.000000  1.000000
 Range of M.O.s used for correlation:    17   321
 NBasis=   322 NAE=    57 NBE=    57 NFC=    16 NFV=     0
 NROrb=    305 NOA=    41 NOB=    41 NVA=   264 NVB=   264

 **** Warning!!: The largest alpha MO coefficient is  0.18026676D+03


 **** Warning!!: The smallest alpha delta epsilon is  0.94980791D-01

 Orbital symmetries:
       Occupied  (A) (A) (A) (A) (A) (A) (A) (A) (A) (A) (A) (A)
                 (A) (A) (A) (A) (A) (A) (A) (A) (A) (A) (A) (A)
                 (A) (A) (A) (A) (A) (A) (A) (A) (A) (A) (A) (A)
                 (A) (A) (A) (A) (A) (A) (A) (A) (A) (A) (A) (A)
                 (A) (A) (A) (A) (A) (A) (A) (A) (A)
       Virtual   (A) (A) (A) (A) (A) (A) (A) (A) (A) (A) (A) (A)
                 (A) (A) (A) (A) (A) (A) (A) (A) (A) (A) (A) (A)
                 (A) (A) (A) (A) (A) (A) (A) (A) (A) (A) (A) (A)
                 (A) (A) (A) (A) (A) (A) (A) (A) (A) (A) (A) (A)
                 (A) (A) (A) (A) (A) (A) (A) (A) (A) (A) (A) (A)
                 (A) (A) (A) (A) (A) (A) (A) (A) (A) (A) (A) (A)
                 (A) (A) (A) (A) (A) (A) (A) (A) (A) (A) (A) (A)
                 (A) (A) (A) (A) (A) (A) (A) (A) (A) (A) (A) (A)
                 (A) (A) (A) (A) (A) (A) (A) (A) (A) (A) (A) (A)
                 (A) (A) (A) (A) (A) (A) (A) (A) (A) (A) (A) (A)
                 (A) (A) (A) (A) (A) (A) (A) (A) (A) (A) (A) (A)
                 (A) (A) (A) (A) (A) (A) (A) (A) (A) (A) (A) (A)
                 (A) (A) (A) (A) (A) (A) (A) (A) (A) (A) (A) (A)
                 (A) (A) (A) (A) (A) (A) (A) (A) (A) (A) (A) (A)
                 (A) (A) (A) (A) (A) (A) (A) (A) (A) (A) (A) (A)
                 (A) (A) (A) (A) (A) (A) (A) (A) (A) (A) (A) (A)
                 (A) (A) (A) (A) (A) (A) (A) (A) (A) (A) (A) (A)
                 (A) (A) (A) (A) (A) (A) (A) (A) (A) (A) (A) (A)
                 (A) (A) (A) (A) (A) (A) (A) (A) (A) (A) (A) (A)
                 (A) (A) (A) (A) (A) (A) (A) (A) (A) (A) (A) (A)
                 (A) (A) (A) (A) (A) (A) (A) (A) (A) (A) (A) (A)
                 (A) (A) (A) (A) (A) (A) (A) (A) (A) (A) (A) (A)
    24 initial guesses have been made.
 Convergence on wavefunction:    0.001000000000000
 Iteration     1 Dimension    24 NMult     0 NNew     24
 CISAX will form    24 AO SS matrices at one time.
 New state      1 was old state      2
 New state      2 was old state      4
 New state      3 was old state      6
 New state      4 was old state      5
 New state      5 was old state      8
 New state      6 was old state      1
 New state      7 was old state     10
 New state      8 was old state      9
 New state      9 was old state     12
 New state     10 was old state     14
 New state     11 was old state      7
 New state     12 was old state     13
 Vector   5 SDiff=2.12D-01 TDiff=9.24D+00 assumed to be singlet.
 Vector  11 SDiff=1.59D-01 TDiff=4.82D+00 assumed to be singlet.
 Iteration     2 Dimension    36 NMult    24 NNew     12
 New state      2 was old state      6
 New state      3 was old state      2
 New state      4 was old state      3
 New state      5 was old state      4
 New state      6 was old state      8
 Iteration     3 Dimension    48 NMult    36 NNew     12
 New state      2 was old state      3
 New state      3 was old state      2
 Iteration     4 Dimension    60 NMult    48 NNew     12
 Iteration     5 Dimension    72 NMult    60 NNew     12
 No map to state      4
 Iteration     6 Dimension    80 NMult    72 NNew      8
 Iteration     7 Dimension    84 NMult    80 NNew      4
 Iteration     8 Dimension    86 NMult    84 NNew      2
 ***********************************************************************
 Excited states from <AA,BB:AA,BB> singles matrix:
 ***********************************************************************
 
 Ground to excited state transition densities written to RWF  633
 Ground to excited state transition electric dipole moments (Au):
       state          X           Y           Z        Dip. S.      Osc.
         1         0.0000     -0.0000      0.0000      0.0000      0.0000
         2        -0.0000     -0.0000     -0.0000      0.0000      0.0000
         3        -2.6526      0.3950      0.0001      7.1925      0.4692
         4        -0.0000      0.0000     -0.0000      0.0000      0.0000
         5         0.0006     -0.0001      0.0078      0.0001      0.0000
         6        -0.0002     -0.0003     -0.0086      0.0001      0.0000
 Ground to excited state transition velocity dipole moments (Au):
       state          X           Y           Z        Dip. S.      Osc.
         1        -0.0000      0.0000     -0.0000      0.0000      0.0000
         2         0.0000      0.0000      0.0000      0.0000      0.0000
         3         0.2496     -0.0444     -0.0000      0.0643      0.4379
         4         0.0000     -0.0000     -0.0000      0.0000      0.0000
         5        -0.0001      0.0000     -0.0002      0.0000      0.0000
         6         0.0000      0.0000      0.0002      0.0000      0.0000
 Ground to excited state transition magnetic dipole moments (Au):
       state          X           Y           Z
         1         0.0000      0.0000     -0.0000
         2         0.0000     -0.0000     -0.0000
         3         0.0002     -0.0002     -0.1100
         4         0.0000     -0.0000      0.0000
         5         0.4438      0.2641     -0.0000
         6        -0.0985      0.5467     -0.0007
 Ground to excited state transition velocity quadrupole moments (Au):
       state          XX          YY          ZZ          XY          XZ          YZ
         1         0.0000      0.0000      0.0000      0.0000     -0.0000      0.0000
         2         0.0000      0.0000      0.0000     -0.0000      0.0000      0.0000
         3         0.1137     -0.0623      0.0048     -0.0869      0.0002      0.0001
         4        -0.0000     -0.0000     -0.0000     -0.0000      0.0000     -0.0000
         5        -0.0003      0.0001     -0.0000     -0.0000     -0.0147      0.0252
         6         0.0004      0.0005     -0.0000      0.0002     -0.0157     -0.0107
 <0|del|b> * <b|rxdel|0> + <0|del|b> * <b|delr+rdel|0>
 Rotatory Strengths (R) in cgs (10**-40 erg-esu-cm/Gauss)
       state          XX          YY          ZZ    R(velocity)    E-M Angle
         1         0.0000      0.0000      0.0000      0.0000       90.00
         2        -0.0000     -0.0000      0.0000     -0.0000       90.00
         3         0.0707      0.2892      0.1063      0.1554       90.00
         4         0.0000     -0.0000      0.0000      0.0000       90.00
         5         0.0098     -0.0977     -0.0785     -0.0555       90.00
         6         0.0367     -0.0095      0.0277      0.0183       90.00
 1/2[<0|r|b>*<b|rxdel|0> + (<0|rxdel|b>*<b|r|0>)*]
 Rotatory Strengths (R) in cgs (10**-40 erg-esu-cm/Gauss)
       state          XX          YY          ZZ     R(length)
         1        -0.0000      0.0000      0.0000      0.0000
         2         0.0000     -0.0000     -0.0000     -0.0000
         3         0.4162      0.0476      0.0068      0.1569
         4         0.0000      0.0000      0.0000      0.0000
         5        -0.1893      0.0252      0.0002     -0.0546
         6        -0.0171      0.1330     -0.0045      0.0371
  1/2[<0|del|b>*<b|r|0> + (<0|r|b>*<b|del|0>)*] (Au)
       state          X           Y           Z        Dip. S.   Osc.(frdel)
         1        -0.0000     -0.0000     -0.0000      0.0000      0.0000
         2        -0.0000     -0.0000     -0.0000      0.0000      0.0000
         3        -0.6621     -0.0175     -0.0000      0.6797      0.4531
         4        -0.0000     -0.0000      0.0000      0.0000      0.0000
         5        -0.0000     -0.0000     -0.0000      0.0000      0.0000
         6        -0.0000     -0.0000     -0.0000      0.0000      0.0000

 Excitation energies and oscillator strengths:
 
 Excited State   1:      Triplet-A      0.9644 eV 1285.67 nm  f=0.0000  <S**2>=2.000
      57 -> 58         0.72875
      57 <- 58         0.20761
 This state for optimization and/or second-order correction.
 Total Energy, E(TD-HF/TD-DFT) =  -887.845137370    
 Copying the excited state density for this state as the 1-particle RhoCI density.
 
 Excited State   2:      Triplet-A      2.4888 eV  498.16 nm  f=0.0000  <S**2>=2.000
      53 -> 58         0.44118
      53 -> 59        -0.42584
      53 -> 64        -0.10561
      55 -> 58         0.29299
      55 -> 59        -0.17520
      57 -> 59        -0.14413
      53 <- 59        -0.12771
 
 Excited State   3:      Singlet-A      2.6629 eV  465.60 nm  f=0.4692  <S**2>=0.000
      57 -> 58         0.71449
      57 <- 58        -0.14900
 
 Excited State   4:      Triplet-A      2.8291 eV  438.24 nm  f=0.0000  <S**2>=2.000
      53 -> 58         0.26514
      53 -> 59        -0.16869
      55 -> 58        -0.35844
      57 -> 59         0.50610
 
 Excited State   5:      Singlet-A      3.2148 eV  385.67 nm  f=0.0000  <S**2>=0.000
      54 -> 59         0.10487
      56 -> 58         0.65983
      56 -> 59        -0.22233
 
 Excited State   6:      Singlet-A      3.4684 eV  357.47 nm  f=0.0000  <S**2>=0.000
      54 -> 58         0.68042
      56 -> 59         0.13050
 SavETr:  write IOETrn=   770 NScale= 10 NData=  16 NLR=1 NState=    6 LETran=     118.

 **********************************************************************

            Population analysis using the SCF Density.

 **********************************************************************

 Orbital symmetries:
       Occupied  (A) (A) (A) (A) (A) (A) (A) (A) (A) (A) (A) (A)
                 (A) (A) (A) (A) (A) (A) (A) (A) (A) (A) (A) (A)
                 (A) (A) (A) (A) (A) (A) (A) (A) (A) (A) (A) (A)
                 (A) (A) (A) (A) (A) (A) (A) (A) (A) (A) (A) (A)
                 (A) (A) (A) (A) (A) (A) (A) (A) (A)
       Virtual   (A) (A) (A) (A) (A) (A) (A) (A) (A) (A) (A) (A)
                 (A) (A) (A) (A) (A) (A) (A) (A) (A) (A) (A) (A)
                 (A) (A) (A) (A) (A) (A) (A) (A) (A) (A) (A) (A)
                 (A) (A) (A) (A) (A) (A) (A) (A) (A) (A) (A) (A)
                 (A) (A) (A) (A) (A) (A) (A) (A) (A) (A) (A) (A)
                 (A) (A) (A) (A) (A) (A) (A) (A) (A) (A) (A) (A)
                 (A) (A) (A) (A) (A) (A) (A) (A) (A) (A) (A) (A)
                 (A) (A) (A) (A) (A) (A) (A) (A) (A) (A) (A) (A)
                 (A) (A) (A) (A) (A) (A) (A) (A) (A) (A) (A) (A)
                 (A) (A) (A) (A) (A) (A) (A) (A) (A) (A) (A) (A)
                 (A) (A) (A) (A) (A) (A) (A) (A) (A) (A) (A) (A)
                 (A) (A) (A) (A) (A) (A) (A) (A) (A) (A) (A) (A)
                 (A) (A) (A) (A) (A) (A) (A) (A) (A) (A) (A) (A)
                 (A) (A) (A) (A) (A) (A) (A) (A) (A) (A) (A) (A)
                 (A) (A) (A) (A) (A) (A) (A) (A) (A) (A) (A) (A)
                 (A) (A) (A) (A) (A) (A) (A) (A) (A) (A) (A) (A)
                 (A) (A) (A) (A) (A) (A) (A) (A) (A) (A) (A) (A)
                 (A) (A) (A) (A) (A) (A) (A) (A) (A) (A) (A) (A)
                 (A) (A) (A) (A) (A) (A) (A) (A) (A) (A) (A) (A)
                 (A) (A) (A) (A) (A) (A) (A) (A) (A) (A) (A) (A)
                 (A) (A) (A) (A) (A) (A) (A) (A) (A) (A) (A) (A)
                 (A) (A) (A) (A) (A) (A) (A) (A) (A) (A) (A) (A)
 The electronic state is 1-A.
 Alpha  occ. eigenvalues --  -19.28151 -19.27833 -19.25421 -19.22096 -19.21060
 Alpha  occ. eigenvalues --  -19.20721 -19.19127 -14.60102 -10.38990 -10.38978
 Alpha  occ. eigenvalues --  -10.36385 -10.33652 -10.28756 -10.26991 -10.25592
 Alpha  occ. eigenvalues --  -10.24676  -1.25199  -1.20855  -1.16459  -1.15309
 Alpha  occ. eigenvalues --   -1.10509  -1.08384  -1.07683  -0.90534  -0.86315
 Alpha  occ. eigenvalues --   -0.83322  -0.77946  -0.71959  -0.68307  -0.67238
 Alpha  occ. eigenvalues --   -0.65549  -0.61114  -0.58634  -0.56843  -0.56420
 Alpha  occ. eigenvalues --   -0.55043  -0.53311  -0.52835  -0.50939  -0.50550
 Alpha  occ. eigenvalues --   -0.49464  -0.49158  -0.47646  -0.47575  -0.46757
 Alpha  occ. eigenvalues --   -0.45527  -0.43114  -0.40462  -0.40257  -0.38676
 Alpha  occ. eigenvalues --   -0.35270  -0.33700  -0.33397  -0.32533  -0.31937
 Alpha  occ. eigenvalues --   -0.31586  -0.25554
 Alpha virt. eigenvalues --   -0.16056  -0.10131  -0.04569  -0.02568  -0.01141
 Alpha virt. eigenvalues --   -0.01031   0.00928   0.01011   0.01696   0.02836
 Alpha virt. eigenvalues --    0.03200   0.04223   0.04841   0.05318   0.06106
 Alpha virt. eigenvalues --    0.06427   0.06620   0.07724   0.08813   0.08891
 Alpha virt. eigenvalues --    0.09761   0.10261   0.10399   0.10832   0.10866
 Alpha virt. eigenvalues --    0.11249   0.11754   0.12695   0.13424   0.13479
 Alpha virt. eigenvalues --    0.14036   0.14643   0.14672   0.15513   0.15632
 Alpha virt. eigenvalues --    0.16501   0.16879   0.17525   0.17577   0.18034
 Alpha virt. eigenvalues --    0.18929   0.19418   0.19987   0.20671   0.21195
 Alpha virt. eigenvalues --    0.21538   0.21954   0.22824   0.23377   0.24076
 Alpha virt. eigenvalues --    0.24317   0.24479   0.25980   0.26206   0.27347
 Alpha virt. eigenvalues --    0.27444   0.27726   0.27815   0.28545   0.28806
 Alpha virt. eigenvalues --    0.29290   0.29291   0.29566   0.30159   0.30597
 Alpha virt. eigenvalues --    0.30936   0.31502   0.31874   0.31941   0.33759
 Alpha virt. eigenvalues --    0.34378   0.34706   0.35282   0.35555   0.36268
 Alpha virt. eigenvalues --    0.37251   0.38667   0.39235   0.40381   0.40954
 Alpha virt. eigenvalues --    0.41286   0.42085   0.42877   0.44605   0.45696
 Alpha virt. eigenvalues --    0.46543   0.48281   0.48366   0.51460   0.53802
 Alpha virt. eigenvalues --    0.56116   0.63725   0.63960   0.64478   0.66959
 Alpha virt. eigenvalues --    0.68137   0.68942   0.70144   0.70242   0.71656
 Alpha virt. eigenvalues --    0.73251   0.73991   0.74458   0.78048   0.78103
 Alpha virt. eigenvalues --    0.79824   0.86620   0.88441   0.88741   0.89854
 Alpha virt. eigenvalues --    0.91528   0.94110   0.96081   0.98740   1.01070
 Alpha virt. eigenvalues --    1.03920   1.05739   1.06977   1.08166   1.08274
 Alpha virt. eigenvalues --    1.10963   1.12735   1.13835   1.14307   1.15771
 Alpha virt. eigenvalues --    1.16120   1.16564   1.18053   1.19921   1.20638
 Alpha virt. eigenvalues --    1.21214   1.22387   1.23558   1.23835   1.24116
 Alpha virt. eigenvalues --    1.24711   1.27138   1.27451   1.28538   1.29329
 Alpha virt. eigenvalues --    1.29978   1.30003   1.31522   1.31822   1.32246
 Alpha virt. eigenvalues --    1.33323   1.34406   1.34464   1.36042   1.36584
 Alpha virt. eigenvalues --    1.37197   1.38133   1.38845   1.39468   1.40268
 Alpha virt. eigenvalues --    1.41344   1.41956   1.45401   1.46107   1.48079
 Alpha virt. eigenvalues --    1.49724   1.52994   1.57422   1.58390   1.63399
 Alpha virt. eigenvalues --    1.66017   1.66425   1.68443   1.69789   1.69838
 Alpha virt. eigenvalues --    1.73284   1.75195   1.76043   1.76503   1.77524
 Alpha virt. eigenvalues --    1.78281   1.78701   1.80775   1.83093   1.84901
 Alpha virt. eigenvalues --    1.87686   1.88035   1.88127   1.90104   1.91213
 Alpha virt. eigenvalues --    1.91572   1.93334   1.95235   1.96265   1.96873
 Alpha virt. eigenvalues --    2.00134   2.00157   2.04459   2.06615   2.09125
 Alpha virt. eigenvalues --    2.12373   2.14362   2.15084   2.15945   2.19127
 Alpha virt. eigenvalues --    2.19583   2.21816   2.24406   2.25423   2.26926
 Alpha virt. eigenvalues --    2.31826   2.32613   2.39189   2.41716   2.41733
 Alpha virt. eigenvalues --    2.42731   2.45125   2.47026   2.48151   2.49578
 Alpha virt. eigenvalues --    2.50395   2.58390   2.61731   2.62595   2.62619
 Alpha virt. eigenvalues --    2.63745   2.63819   2.67941   2.68727   2.70193
 Alpha virt. eigenvalues --    2.73742   2.74066   2.74131   2.81569   2.86297
 Alpha virt. eigenvalues --    2.89851   2.92011   2.95257   2.97344   3.00412
 Alpha virt. eigenvalues --    3.02802   3.04623   3.06270   3.11339   3.16175
 Alpha virt. eigenvalues --    3.20296   3.22390   3.25727   3.29236   3.39467
 Alpha virt. eigenvalues --    3.43217   3.56068   3.63149   4.14894   4.21264
 Alpha virt. eigenvalues --    4.24723   4.28075   4.32551   4.35664   4.40373
 Alpha virt. eigenvalues --    4.47153   4.55222   4.59924   4.65479   4.66632
 Alpha virt. eigenvalues --    4.75219   4.78396   5.01458   5.07375
          Condensed to atoms (all electrons):
               1          2          3          4          5          6
     1  C   11.257987  -1.125755  -1.526684   0.369380  -3.745463   0.180204
     2  C   -1.125755  15.373189  -7.520585  -2.183046  -2.104356   1.009961
     3  C   -1.526684  -7.520585  17.889486  -0.697986   2.220150   0.015916
     4  C    0.369380  -2.183046  -0.697986  12.543652   0.273046  -0.125756
     5  C   -3.745463  -2.104356   2.220150   0.273046  16.627761  -4.339639
     6  C    0.180204   1.009961   0.015916  -0.125756  -4.339639   9.548239
     7  O   -0.052894  -0.348289   0.385378  -0.210413   0.056282   0.014783
     8  C    0.805688   1.219586  -2.390499  -2.937061  -1.765526   0.268934
     9  O   -0.143457   0.051632  -0.044826   0.100053   0.001892   0.047071
    10  C   -0.176808   1.202436  -2.321884  -0.423787  -1.560858  -0.496022
    11  O    0.022512  -0.052111  -0.000809   0.044506  -0.187913   0.095641
    12  O   -0.083964  -0.100291   0.100835   0.011752   0.456281  -0.393026
    13  N    0.020571  -0.221556   0.066996  -0.266997  -0.000846  -0.003378
    14  O    0.012949   0.235324  -0.042653  -0.372027  -0.000655   0.000580
    15  O   -0.004041   0.077176   0.005027  -0.096092   0.001716  -0.000624
    16  H   -0.061462  -0.389243   0.822481  -0.089334   0.021289  -0.001473
    17  H   -0.190997  -0.067127   0.000958  -0.013618   0.694067  -0.190665
    18  O   -0.054951   0.004968  -0.000907   0.000249  -0.181178   0.163468
    19  H    0.004725  -0.000090  -0.000591  -0.000078   0.005016   0.034379
               7          8          9         10         11         12
     1  C   -0.052894   0.805688  -0.143457  -0.176808   0.022512  -0.083964
     2  C   -0.348289   1.219586   0.051632   1.202436  -0.052111  -0.100291
     3  C    0.385378  -2.390499  -0.044826  -2.321884  -0.000809   0.100835
     4  C   -0.210413  -2.937061   0.100053  -0.423787   0.044506   0.011752
     5  C    0.056282  -1.765526   0.001892  -1.560858  -0.187913   0.456281
     6  C    0.014783   0.268934   0.047071  -0.496022   0.095641  -0.393026
     7  O    8.590705   0.035928  -0.073379  -0.009944  -0.000496   0.000363
     8  C    0.035928   8.860657   0.272686   0.714128  -0.024937  -0.017348
     9  O   -0.073379   0.272686   8.313034  -0.033203   0.000463  -0.000776
    10  C   -0.009944   0.714128  -0.033203   7.935217   0.369243  -0.035835
    11  O   -0.000496  -0.024937   0.000463   0.369243   8.267299  -0.066069
    12  O    0.000363  -0.017348  -0.000776  -0.035835  -0.066069   8.585434
    13  N   -0.054713   0.188708   0.002805   0.000604   0.000295  -0.000019
    14  O   -0.005192   0.079649  -0.000538   0.014041   0.000117  -0.000008
    15  O    0.013201  -0.073408   0.000418  -0.004057  -0.000051  -0.000002
    16  H    0.010747   0.016985   0.000991  -0.058099  -0.011471   0.001103
    17  H    0.000526  -0.015550  -0.014411   0.054575   0.000100   0.005206
    18  O   -0.000019   0.001936   0.000250   0.126476   0.000750  -0.077648
    19  H    0.000027  -0.000188   0.000084  -0.008699   0.000088  -0.018413
              13         14         15         16         17         18
     1  C    0.020571   0.012949  -0.004041  -0.061462  -0.190997  -0.054951
     2  C   -0.221556   0.235324   0.077176  -0.389243  -0.067127   0.004968
     3  C    0.066996  -0.042653   0.005027   0.822481   0.000958  -0.000907
     4  C   -0.266997  -0.372027  -0.096092  -0.089334  -0.013618   0.000249
     5  C   -0.000846  -0.000655   0.001716   0.021289   0.694067  -0.181178
     6  C   -0.003378   0.000580  -0.000624  -0.001473  -0.190665   0.163468
     7  O   -0.054713  -0.005192   0.013201   0.010747   0.000526  -0.000019
     8  C    0.188708   0.079649  -0.073408   0.016985  -0.015550   0.001936
     9  O    0.002805  -0.000538   0.000418   0.000991  -0.014411   0.000250
    10  C    0.000604   0.014041  -0.004057  -0.058099   0.054575   0.126476
    11  O    0.000295   0.000117  -0.000051  -0.011471   0.000100   0.000750
    12  O   -0.000019  -0.000008  -0.000002   0.001103   0.005206  -0.077648
    13  N    6.975020   0.358916   0.398506  -0.015077   0.000424   0.000001
    14  O    0.358916   7.830697  -0.060069  -0.012404   0.000196   0.000000
    15  O    0.398506  -0.060069   7.684148   0.001793  -0.000118   0.000000
    16  H   -0.015077  -0.012404   0.001793   0.540511   0.000090   0.000202
    17  H    0.000424   0.000196  -0.000118   0.000090   0.535741  -0.016790
    18  O    0.000001   0.000000   0.000000   0.000202  -0.016790   8.297181
    19  H   -0.000012   0.000001  -0.000001  -0.000002   0.001211   0.211080
              19
     1  C    0.004725
     2  C   -0.000090
     3  C   -0.000591
     4  C   -0.000078
     5  C    0.005016
     6  C    0.034379
     7  O    0.000027
     8  C   -0.000188
     9  O    0.000084
    10  C   -0.008699
    11  O    0.000088
    12  O   -0.018413
    13  N   -0.000012
    14  O    0.000001
    15  O   -0.000001
    16  H   -0.000002
    17  H    0.001211
    18  O    0.211080
    19  H    0.360970
 Mulliken charges:
               1
     1  C    0.492460
     2  C    0.938179
     3  C   -0.959803
     4  C    0.073557
     5  C   -0.471068
     6  C    0.171406
     7  O   -0.352604
     8  C    0.759631
     9  O   -0.480789
    10  C    0.712476
    11  O   -0.457157
    12  O   -0.367576
    13  N   -0.450248
    14  O   -0.038924
    15  O    0.056479
    16  H    0.222373
    17  H    0.216182
    18  O   -0.475069
    19  H    0.410494
 Sum of Mulliken charges =  -0.00000
 Mulliken charges with hydrogens summed into heavy atoms:
               1
     1  C    0.492460
     2  C    0.938179
     3  C   -0.737430
     4  C    0.073557
     5  C   -0.254885
     6  C    0.171406
     7  O   -0.352604
     8  C    0.759631
     9  O   -0.480789
    10  C    0.712476
    11  O   -0.457157
    12  O   -0.367576
    13  N   -0.450248
    14  O   -0.038924
    15  O    0.056479
    18  O   -0.064575
 Electronic spatial extent (au):  <R**2>=           4177.8288
 Charge=             -0.0000 electrons
 Dipole moment (field-independent basis, Debye):
    X=              8.4983    Y=             -0.7189    Z=              0.0005  Tot=              8.5287
 Quadrupole moment (field-independent basis, Debye-Ang):
   XX=            -87.5406   YY=           -106.1685   ZZ=            -86.0364
   XY=             -1.0747   XZ=              0.0053   YZ=              0.0026
 Traceless Quadrupole moment (field-independent basis, Debye-Ang):
   XX=              5.7079   YY=            -12.9200   ZZ=              7.2121
   XY=             -1.0747   XZ=              0.0053   YZ=              0.0026
 Octapole moment (field-independent basis, Debye-Ang**2):
  XXX=            252.2186  YYY=             -3.9943  ZZZ=              0.0006  XYY=              4.9236
  XXY=             -5.8235  XXZ=              0.0233  XZZ=             -5.5870  YZZ=             -1.9194
  YYZ=             -0.0014  XYZ=             -0.0045
 Hexadecapole moment (field-independent basis, Debye-Ang**3):
 XXXX=          -3815.4707 YYYY=          -1082.7472 ZZZZ=            -82.1619 XXXY=           -175.3571
 XXXZ=              0.1266 YYYX=             24.9139 YYYZ=              0.0066 ZZZX=             -0.0023
 ZZZY=             -0.0014 XXYY=           -943.4470 XXZZ=           -673.1450 YYZZ=           -170.3639
 XXYZ=              0.0228 YYXZ=              0.0135 ZZXY=             -8.1153
 N-N= 1.045647227585D+03 E-N=-4.167227799663D+03  KE= 8.801040778891D+02
 Unable to Open any file for archive entry.
 1\1\GINC-N1\SP\RB3LYP TD-FC\6-31++G(d,p)\C8H3N1O7\HPCMGAC13\01-Jul-202
 5\0\\# td=(50-50,nstates=3) b3lyp/6-31++g(d,p) geom=connectivity\\Titl
 e Card Required\\0,1\C,0,-1.277554,0.024861,0.000034\C,0,0.086704,0.20
 4612,-0.000006\C,0,1.157079,-0.751548,0.000186\C,0,2.294646,-0.015557,
 0.000097\C,0,-2.338985,0.97151,-0.000164\C,0,-3.494877,0.242236,-0.000
 002\O,0,2.110955,1.335012,0.00001\C,0,0.721117,1.546711,-0.000046\O,0,
 0.246661,2.653092,-0.000051\C,0,-1.912396,-1.329591,0.000038\O,0,-1.46
 049,-2.43636,0.000075\O,0,-3.317182,-1.110068,-0.000052\N,0,3.654279,-
 0.488938,-0.000037\O,0,3.801442,-1.716538,-0.000362\O,0,4.553429,0.349
 581,0.000229\H,0,1.090516,-1.827977,0.000498\H,0,-2.257511,2.046712,-0
 .00046\O,0,-4.743503,0.666559,0.000112\H,0,-5.357863,-0.085799,-0.0003
 07\\Version=ES64L-G16RevC.02\State=1-A\HF=-887.8805768\RMSD=7.654e-09\
 PG=C01 [X(C8H3N1O7)]\\@
 The archive entry for this job was punched.


 THE SECRET OF SUCCESS IN LIFE IS TO EAT WHAT YOU LIKE, AND LET THE FOOD
 FIGHT IT OUT INSIDE YOU. -- FROM A FORTUNE COOKIE
 Job cpu time:       0 days  0 hours 33 minutes 58.9 seconds.
 Elapsed time:       0 days  0 hours  4 minutes 21.1 seconds.
 File lengths (MBytes):  RWF=    694 Int=      0 D2E=      0 Chk=     29 Scr=      2
 Normal termination of Gaussian 16 at Tue Jul  1 15:47:55 2025.
