 Entering Gaussian System, Link 0=g16
 Input=MNO2e.gjf
 Output=MNO2e.log
 Initial command:
 /hpc/softwares/Gaussian/g16/l1.exe "/hpc/home/hpcmgac13/pbs.11607.admin1.x8z/Gau-3077970.inp" -scrdir="/hpc/home/hpcmgac13/pbs.11607.admin1.x8z/"
 Default linda workers: n1
 Default is to use   8 SMP processors on each worker.
 Entering Link 1 = /hpc/softwares/Gaussian/g16/l1.exe PID=   3077971.
  
 Copyright (c) 1988-2021, Gaussian, Inc.  All Rights Reserved.
  
 This is part of the Gaussian(R) 16 program.  It is based on
 the Gaussian(R) 09 system (copyright 2009, Gaussian, Inc.),
 the Gaussian(R) 03 system (copyright 2003, Gaussian, Inc.),
 the Gaussian(R) 98 system (copyright 1998, Gaussian, Inc.),
 the Gaussian(R) 94 system (copyright 1995, Gaussian, Inc.),
 the Gaussian 92(TM) system (copyright 1992, Gaussian, Inc.),
 the Gaussian 90(TM) system (copyright 1990, Gaussian, Inc.),
 the Gaussian 88(TM) system (copyright 1988, Gaussian, Inc.),
 the Gaussian 86(TM) system (copyright 1986, Carnegie Mellon
 University), and the Gaussian 82(TM) system (copyright 1983,
 Carnegie Mellon University). Gaussian is a federally registered
 trademark of Gaussian, Inc.
  
 This software contains proprietary and confidential information,
 including trade secrets, belonging to Gaussian, Inc.
  
 This software is provided under written license and may be
 used, copied, transmitted, or stored only in accord with that
 written license.
  
 The following legend is applicable only to US Government
 contracts under FAR:
  
                    RESTRICTED RIGHTS LEGEND
  
 Use, reproduction and disclosure by the US Government is
 subject to restrictions as set forth in subparagraphs (a)
 and (c) of the Commercial Computer Software - Restricted
 Rights clause in FAR 52.227-19.
  
 Gaussian, Inc.
 340 Quinnipiac St., Bldg. 40, Wallingford CT 06492
  
  
 ---------------------------------------------------------------
 Warning -- This program may not be used in any manner that
 competes with the business of Gaussian, Inc. or will provide
 assistance to any competitor of Gaussian, Inc.  The licensee
 of this program is prohibited from giving any competitor of
 Gaussian, Inc. access to this program.  By using this program,
 the user acknowledges that Gaussian, Inc. is engaged in the
 business of creating and licensing software in the field of
 computational chemistry and represents and warrants to the
 licensee that it is not a competitor of Gaussian, Inc. and that
 it will not use this program in any manner prohibited above.
 ---------------------------------------------------------------
  

 Cite this work as:
 Gaussian 16, Revision C.02,
 M. J. Frisch, G. W. Trucks, H. B. Schlegel, G. E. Scuseria, 
 M. A. Robb, J. R. Cheeseman, G. Scalmani, V. Barone, 
 G. A. Petersson, H. Nakatsuji, X. Li, M. Caricato, A. V. Marenich, 
 J. Bloino, B. G. Janesko, R. Gomperts, B. Mennucci, H. P. Hratchian, 
 J. V. Ortiz, A. F. Izmaylov, J. L. Sonnenberg, D. Williams-Young, 
 F. Ding, F. Lipparini, F. Egidi, J. Goings, B. Peng, A. Petrone, 
 T. Henderson, D. Ranasinghe, V. G. Zakrzewski, J. Gao, N. Rega, 
 G. Zheng, W. Liang, M. Hada, M. Ehara, K. Toyota, R. Fukuda, 
 J. Hasegawa, M. Ishida, T. Nakajima, Y. Honda, O. Kitao, H. Nakai, 
 T. Vreven, K. Throssell, J. A. Montgomery, Jr., J. E. Peralta, 
 F. Ogliaro, M. J. Bearpark, J. J. Heyd, E. N. Brothers, K. N. Kudin, 
 V. N. Staroverov, T. A. Keith, R. Kobayashi, J. Normand, 
 K. Raghavachari, A. P. Rendell, J. C. Burant, S. S. Iyengar, 
 J. Tomasi, M. Cossi, J. M. Millam, M. Klene, C. Adamo, R. Cammi, 
 J. W. Ochterski, R. L. Martin, K. Morokuma, O. Farkas, 
 J. B. Foresman, and D. J. Fox, Gaussian, Inc., Wallingford CT, 2019.
 
 ******************************************
 Gaussian 16:  ES64L-G16RevC.02  7-Dec-2021
                 1-Jul-2025 
 ******************************************
 SetLPE:    new flags="-opt 'Tsnet.Node.lindarsharg: ssh'  -nodelist 'n1' -env GAUSS_MDEF=2147483648 -env GAUSS_EXEDIR="/hpc/softwares/Gaussian/g16/bsd:/hpc/softwares/Gaussian/g16""
 Will use up to    1 processors via Linda.
 -----------------------------------------------------------
 # td=(50-50,nstates=3) b3lyp/6-31++g(d,p) geom=connectivity
 -----------------------------------------------------------
 1/38=1,57=2,172=1/1;
 2/12=2,17=6,18=5,40=1/2;
 3/5=1,6=6,7=1111,11=9,25=1,30=1,74=-5/1,2,3,8;
 4//1;
 5/5=2,38=5/2;
 8/6=1,10=2,108=3/1;
 9/41=3,42=1,48=2,70=2/14;
 6/7=2,8=2,9=2,10=2/1;
 99/5=1,9=1/99;
 -------------------
 Title Card Required
 -------------------
 Symbolic Z-matrix:
 Charge =  0 Multiplicity = 1
 C                     1.63647   0.14293  -0.00004 
 C                     0.27248   0.26436   0.00009 
 C                    -0.75328  -0.74297   0.00045 
 H                    -0.63082  -1.81455   0.00069 
 C                    -1.92196  -0.06086  -0.00008 
 C                     2.66727   1.13883  -0.00019 
 H                     2.52969   2.20922  -0.00038 
 C                     3.84631   0.46868  -0.0001 
 H                     4.86553   0.82873  -0.0002 
 O                    -1.81047   1.29644  -0.00008 
 C                    -0.43292   1.57967   0.00008 
 O                    -0.01746   2.70645   0.00032 
 C                     2.34488  -1.17965   0.00005 
 O                     1.9239   -2.30389   0.00024 
 O                     3.71497  -0.89666  -0.00027 
 N                    -3.26299  -0.60106  -0.00016 
 O                    -4.19806   0.19489  -0.00017 
 O                    -3.34775  -1.83248  -0.0001 
 
                          Input orientation:                          
 ---------------------------------------------------------------------
 Center     Atomic      Atomic             Coordinates (Angstroms)
 Number     Number       Type             X           Y           Z
 ---------------------------------------------------------------------
      1          6           0        1.636473    0.142929   -0.000043
      2          6           0        0.272479    0.264364    0.000088
      3          6           0       -0.753278   -0.742971    0.000445
      4          1           0       -0.630822   -1.814545    0.000688
      5          6           0       -1.921957   -0.060859   -0.000081
      6          6           0        2.667267    1.138830   -0.000193
      7          1           0        2.529688    2.209224   -0.000381
      8          6           0        3.846309    0.468684   -0.000101
      9          1           0        4.865531    0.828726   -0.000202
     10          8           0       -1.810465    1.296444   -0.000078
     11          6           0       -0.432919    1.579670    0.000080
     12          8           0       -0.017463    2.706452    0.000315
     13          6           0        2.344876   -1.179653    0.000053
     14          8           0        1.923902   -2.303891    0.000244
     15          8           0        3.714968   -0.896656   -0.000274
     16          7           0       -3.262986   -0.601062   -0.000160
     17          8           0       -4.198063    0.194890   -0.000168
     18          8           0       -3.347753   -1.832482   -0.000098
 ---------------------------------------------------------------------
                    Distance matrix (angstroms):
                    1          2          3          4          5
     1  C    0.000000
     2  C    1.369389   0.000000
     3  C    2.548672   1.437672   0.000000
     4  H    2.995385   2.266675   1.078548   0.000000
     5  C    3.564261   2.218405   1.353177   2.177715   0.000000
     6  C    1.433302   2.549451   3.904011   4.427168   4.743441
     7  H    2.251090   2.979509   4.415124   5.116595   4.997041
     8  C    2.233717   3.579666   4.756502   5.025718   5.792522
     9  H    3.301081   4.627595   5.834488   6.098916   6.845535
    10  O    3.634829   2.324617   2.297141   3.327133   1.361874
    11  C    2.519247   1.492520   2.344630   3.399980   2.215529
    12  O    3.050763   2.459240   3.527030   4.562414   3.359331
    13  C    1.500353   2.525869   3.128778   3.042674   4.411073
    14  O    2.463644   3.053380   3.098994   2.601168   4.452171
    15  O    2.323979   3.633001   4.470888   4.441668   5.698551
    16  N    4.955625   3.639845   2.513717   2.898418   1.445745
    17  O    5.834767   4.471082   3.570172   4.094269   2.290429
    18  O    5.361414   4.183640   2.813954   2.716990   2.274103
                    6          7          8          9         10
     6  C    0.000000
     7  H    1.079199   0.000000
     8  C    1.356184   2.182423   0.000000
     9  H    2.220029   2.713289   1.080946   0.000000
    10  O    4.480505   4.435098   5.717017   6.692360   0.000000
    11  C    3.131372   3.028759   4.421095   5.351401   1.406361
    12  O    3.108893   2.595229   4.465013   5.231585   2.281004
    13  C    2.340790   3.393913   2.229645   3.222932   4.837139
    14  O    3.522062   4.553590   3.373844   4.297263   5.187283
    15  O    2.289297   3.324361   1.371643   2.073822   5.944754
    16  N    6.180220   6.438383   7.189328   8.253307   2.389633
    17  O    6.929919   7.022832   8.049030   9.085730   2.629457
    18  O    6.708887   7.133001   7.553138   8.633659   3.486177
                   11         12         13         14         15
    11  C    0.000000
    12  O    1.200934   0.000000
    13  C    3.915355   4.547797   0.000000
    14  O    4.542758   5.373308   1.200471   0.000000
    15  O    4.830855   5.187815   1.399014   2.277768   0.000000
    16  N    3.572796   4.633904   5.637631   5.459252   6.984212
    17  O    4.011723   4.877024   6.685762   6.612289   7.987962
    18  O    4.487654   5.629632   5.729940   5.292691   7.124451
                   16         17         18
    16  N    0.000000
    17  O    1.227969   0.000000
    18  O    1.234334   2.198469   0.000000
 Stoichiometry    C8H3NO6
 Framework group  C1[X(C8H3NO6)]
 Deg. of freedom    48
 Full point group                 C1      NOp   1
 Largest Abelian subgroup         C1      NOp   1
 Largest concise Abelian subgroup C1      NOp   1
                         Standard orientation:                         
 ---------------------------------------------------------------------
 Center     Atomic      Atomic             Coordinates (Angstroms)
 Number     Number       Type             X           Y           Z
 ---------------------------------------------------------------------
      1          6           0        1.636473    0.142929   -0.000043
      2          6           0        0.272479    0.264364    0.000088
      3          6           0       -0.753278   -0.742971    0.000445
      4          1           0       -0.630822   -1.814545    0.000688
      5          6           0       -1.921957   -0.060859   -0.000081
      6          6           0        2.667267    1.138830   -0.000193
      7          1           0        2.529688    2.209224   -0.000381
      8          6           0        3.846309    0.468684   -0.000101
      9          1           0        4.865531    0.828726   -0.000202
     10          8           0       -1.810465    1.296444   -0.000078
     11          6           0       -0.432919    1.579670    0.000080
     12          8           0       -0.017463    2.706452    0.000315
     13          6           0        2.344876   -1.179653    0.000053
     14          8           0        1.923902   -2.303891    0.000244
     15          8           0        3.714968   -0.896656   -0.000274
     16          7           0       -3.262986   -0.601062   -0.000160
     17          8           0       -4.198063    0.194890   -0.000168
     18          8           0       -3.347753   -1.832482   -0.000098
 ---------------------------------------------------------------------
 Rotational constants (GHZ):           1.3209596           0.3639673           0.2853454
 Standard basis: 6-31++G(d,p) (6D, 7F)
 There are   303 symmetry adapted cartesian basis functions of A   symmetry.
 There are   303 symmetry adapted basis functions of A   symmetry.
   303 basis functions,   504 primitive gaussians,   303 cartesian basis functions
    53 alpha electrons       53 beta electrons
       nuclear repulsion energy       935.7262850574 Hartrees.
 NAtoms=   18 NActive=   18 NUniq=   18 SFac= 1.00D+00 NAtFMM=   60 NAOKFM=F Big=F
 Integral buffers will be    131072 words long.
 Regular integral format.
 Two-electron integral symmetry is turned on.
 One-electron integrals computed using PRISM.
 NBasis=   303 RedAO= T EigKep=  1.16D-06  NBF=   303
 NBsUse=   302 1.00D-06 EigRej=  2.09D-07 NBFU=   302
 ExpMin= 3.60D-02 ExpMax= 5.48D+03 ExpMxC= 8.25D+02 IAcc=3 IRadAn=         5 AccDes= 0.00D+00
 Harris functional with IExCor=  402 and IRadAn=       5 diagonalized for initial guess.
 HarFok:  IExCor=  402 AccDes= 0.00D+00 IRadAn=         5 IDoV= 1 UseB2=F ITyADJ=14
 ICtDFT=  3500011 ScaDFX=  1.000000  1.000000  1.000000  1.000000
 FoFCou: FMM=F IPFlag=           0 FMFlag=      100000 FMFlg1=           0
         NFxFlg=           0 DoJE=T BraDBF=F KetDBF=T FulRan=T
         wScrn=  0.000000 ICntrl=       500 IOpCl=  0 I1Cent=   200000004 NGrid=           0
         NMat0=    1 NMatS0=      1 NMatT0=    0 NMatD0=    1 NMtDS0=    0 NMtDT0=    0
 Petite list used in FoFCou.
 Requested convergence on RMS density matrix=1.00D-08 within 128 cycles.
 Requested convergence on MAX density matrix=1.00D-06.
 Requested convergence on             energy=1.00D-06.
 No special actions if energy rises.
 SCF Done:  E(RB3LYP) =  -812.642774971     A.U. after   16 cycles
            NFock= 16  Conv=0.75D-08     -V/T= 2.0089
 DoSCS=F DFT=T ScalE2(SS,OS)=  1.000000  1.000000
 ExpMin= 3.60D-02 ExpMax= 5.48D+03 ExpMxC= 8.25D+02 IAcc=3 IRadAn=         5 AccDes= 0.00D+00
 HarFok:  IExCor=  205 AccDes= 0.00D+00 IRadAn=         5 IDoV=-2 UseB2=F ITyADJ=14
 ICtDFT= 12500011 ScaDFX=  1.000000  1.000000  1.000000  1.000000
 Range of M.O.s used for correlation:    16   302
 NBasis=   303 NAE=    53 NBE=    53 NFC=    15 NFV=     0
 NROrb=    287 NOA=    38 NOB=    38 NVA=   249 NVB=   249

 **** Warning!!: The largest alpha MO coefficient is  0.16273306D+03


 **** Warning!!: The smallest alpha delta epsilon is  0.99306363D-01

 Orbital symmetries:
       Occupied  (A) (A) (A) (A) (A) (A) (A) (A) (A) (A) (A) (A)
                 (A) (A) (A) (A) (A) (A) (A) (A) (A) (A) (A) (A)
                 (A) (A) (A) (A) (A) (A) (A) (A) (A) (A) (A) (A)
                 (A) (A) (A) (A) (A) (A) (A) (A) (A) (A) (A) (A)
                 (A) (A) (A) (A) (A)
       Virtual   (A) (A) (A) (A) (A) (A) (A) (A) (A) (A) (A) (A)
                 (A) (A) (A) (A) (A) (A) (A) (A) (A) (A) (A) (A)
                 (A) (A) (A) (A) (A) (A) (A) (A) (A) (A) (A) (A)
                 (A) (A) (A) (A) (A) (A) (A) (A) (A) (A) (A) (A)
                 (A) (A) (A) (A) (A) (A) (A) (A) (A) (A) (A) (A)
                 (A) (A) (A) (A) (A) (A) (A) (A) (A) (A) (A) (A)
                 (A) (A) (A) (A) (A) (A) (A) (A) (A) (A) (A) (A)
                 (A) (A) (A) (A) (A) (A) (A) (A) (A) (A) (A) (A)
                 (A) (A) (A) (A) (A) (A) (A) (A) (A) (A) (A) (A)
                 (A) (A) (A) (A) (A) (A) (A) (A) (A) (A) (A) (A)
                 (A) (A) (A) (A) (A) (A) (A) (A) (A) (A) (A) (A)
                 (A) (A) (A) (A) (A) (A) (A) (A) (A) (A) (A) (A)
                 (A) (A) (A) (A) (A) (A) (A) (A) (A) (A) (A) (A)
                 (A) (A) (A) (A) (A) (A) (A) (A) (A) (A) (A) (A)
                 (A) (A) (A) (A) (A) (A) (A) (A) (A) (A) (A) (A)
                 (A) (A) (A) (A) (A) (A) (A) (A) (A) (A) (A) (A)
                 (A) (A) (A) (A) (A) (A) (A) (A) (A) (A) (A) (A)
                 (A) (A) (A) (A) (A) (A) (A) (A) (A) (A) (A) (A)
                 (A) (A) (A) (A) (A) (A) (A) (A) (A) (A) (A) (A)
                 (A) (A) (A) (A) (A) (A) (A) (A) (A) (A) (A) (A)
                 (A) (A) (A) (A) (A) (A) (A) (A) (A)
    24 initial guesses have been made.
 Convergence on wavefunction:    0.001000000000000
 Iteration     1 Dimension    24 NMult     0 NNew     24
 CISAX will form    24 AO SS matrices at one time.
 New state      1 was old state      2
 New state      2 was old state      6
 New state      3 was old state      4
 New state      4 was old state     10
 New state      5 was old state      3
 New state      6 was old state      1
 New state      7 was old state      8
 New state      8 was old state      9
 New state      9 was old state     12
 New state     10 was old state     14
 New state     12 was old state      5
 Vector   4 SDiff=8.38D-01 TDiff=4.07D+00 assumed to be singlet.
 Vector  10 SDiff=8.55D-01 TDiff=3.86D+00 assumed to be singlet.
 Iteration     2 Dimension    36 NMult    24 NNew     12
 New state      3 was old state      6
 New state      4 was old state      3
 New state      6 was old state      8
 Iteration     3 Dimension    48 NMult    36 NNew     12
 Iteration     4 Dimension    60 NMult    48 NNew     12
 Iteration     5 Dimension    72 NMult    60 NNew     12
 No map to state      4
 Iteration     6 Dimension    80 NMult    72 NNew      8
 Iteration     7 Dimension    84 NMult    80 NNew      4
 Iteration     8 Dimension    88 NMult    84 NNew      4
 ***********************************************************************
 Excited states from <AA,BB:AA,BB> singles matrix:
 ***********************************************************************
 
 Ground to excited state transition densities written to RWF  633
 Ground to excited state transition electric dipole moments (Au):
       state          X           Y           Z        Dip. S.      Osc.
         1        -0.0000     -0.0000      0.0000      0.0000      0.0000
         2         0.0000      0.0000      0.0000      0.0000      0.0000
         3         2.4523     -0.3978      0.0001      6.1720      0.4139
         4        -0.0000      0.0000     -0.0000      0.0000      0.0000
         5         0.0003     -0.0001     -0.0056      0.0000      0.0000
         6         0.0000      0.0002     -0.0171      0.0003      0.0000
 Ground to excited state transition velocity dipole moments (Au):
       state          X           Y           Z        Dip. S.      Osc.
         1         0.0000      0.0000     -0.0000      0.0000      0.0000
         2        -0.0000      0.0000     -0.0000      0.0000      0.0000
         3        -0.2411      0.0457     -0.0000      0.0602      0.3992
         4         0.0000      0.0000     -0.0000      0.0000      0.0000
         5        -0.0000      0.0000      0.0002      0.0000      0.0000
         6        -0.0000     -0.0000      0.0012      0.0000      0.0000
 Ground to excited state transition magnetic dipole moments (Au):
       state          X           Y           Z
         1        -0.0000     -0.0000      0.0000
         2         0.0000     -0.0000     -0.0000
         3         0.0002     -0.0001      0.3223
         4        -0.0000      0.0000     -0.0000
         5        -0.4236     -0.3569     -0.0001
         6        -0.0826      0.4483      0.0011
 Ground to excited state transition velocity quadrupole moments (Au):
       state          XX          YY          ZZ          XY          XZ          YZ
         1        -0.0000     -0.0000     -0.0000     -0.0000      0.0000     -0.0000
         2         0.0000      0.0000     -0.0000     -0.0000     -0.0000      0.0000
         3        -0.3237      0.0650     -0.0139      0.1428      0.0001      0.0001
         4         0.0000     -0.0000      0.0000      0.0000     -0.0000     -0.0000
         5        -0.0000      0.0001     -0.0000      0.0000      0.0157     -0.0238
         6        -0.0004     -0.0002      0.0000     -0.0001     -0.0008     -0.0058
 <0|del|b> * <b|rxdel|0> + <0|del|b> * <b|delr+rdel|0>
 Rotatory Strengths (R) in cgs (10**-40 erg-esu-cm/Gauss)
       state          XX          YY          ZZ    R(velocity)    E-M Angle
         1        -0.0000     -0.0000     -0.0000     -0.0000       90.00
         2         0.0000     -0.0000     -0.0000     -0.0000       90.00
         3        -0.0642     -0.2485     -0.1338     -0.1489       90.00
         4         0.0000     -0.0000      0.0000     -0.0000       90.00
         5        -0.0196      0.0486      0.0256      0.0182       90.00
         6        -0.0120      0.0043     -0.0150     -0.0076       90.00
 1/2[<0|r|b>*<b|rxdel|0> + (<0|rxdel|b>*<b|r|0>)*]
 Rotatory Strengths (R) in cgs (10**-40 erg-esu-cm/Gauss)
       state          XX          YY          ZZ     R(length)
         1        -0.0000     -0.0000     -0.0000     -0.0000
         2        -0.0000      0.0000      0.0000     -0.0000
         3        -0.3757     -0.0368     -0.0125     -0.1417
         4        -0.0000     -0.0000     -0.0000     -0.0000
         5         0.0884     -0.0378     -0.0003      0.0168
         6         0.0006     -0.0524      0.0127     -0.0130
  1/2[<0|del|b>*<b|r|0> + (<0|r|b>*<b|del|0>)*] (Au)
       state          X           Y           Z        Dip. S.   Osc.(frdel)
         1        -0.0000     -0.0000     -0.0000      0.0000      0.0000
         2        -0.0000      0.0000     -0.0000      0.0000      0.0000
         3        -0.5914     -0.0182     -0.0000      0.6095      0.4064
         4        -0.0000      0.0000      0.0000      0.0000      0.0000
         5        -0.0000     -0.0000     -0.0000      0.0000      0.0000
         6        -0.0000     -0.0000     -0.0000      0.0000      0.0000

 Excitation energies and oscillator strengths:
 
 Excited State   1:      Triplet-A      0.9437 eV 1313.79 nm  f=0.0000  <S**2>=2.000
      53 -> 54         0.73324
      53 <- 54         0.23251
 This state for optimization and/or second-order correction.
 Total Energy, E(TD-HF/TD-DFT) =  -812.608094169    
 Copying the excited state density for this state as the 1-particle RhoCI density.
 
 Excited State   2:      Triplet-A      2.4299 eV  510.25 nm  f=0.0000  <S**2>=2.000
      48 -> 54         0.46791
      48 -> 55         0.43445
      48 -> 60         0.10870
      51 -> 54         0.27677
      51 -> 55         0.13697
      53 -> 55         0.11546
      48 <- 55         0.13552
 
 Excited State   3:      Singlet-A      2.7374 eV  452.93 nm  f=0.4139  <S**2>=0.000
      53 -> 54         0.71035
      53 <- 54        -0.14019
 
 Excited State   4:      Triplet-A      2.7985 eV  443.04 nm  f=0.0000  <S**2>=2.000
      48 -> 54        -0.26994
      48 -> 55        -0.14850
      51 -> 54         0.53803
      53 -> 55         0.30969
 
 Excited State   5:      Singlet-A      3.1795 eV  389.95 nm  f=0.0000  <S**2>=0.000
      50 -> 55         0.11085
      52 -> 54         0.66738
      52 -> 55         0.19325
 
 Excited State   6:      Singlet-A      3.3014 eV  375.55 nm  f=0.0000  <S**2>=0.000
      49 -> 54         0.10421
      50 -> 54         0.68200
      52 -> 55         0.12860
 SavETr:  write IOETrn=   770 NScale= 10 NData=  16 NLR=1 NState=    6 LETran=     118.

 **********************************************************************

            Population analysis using the SCF Density.

 **********************************************************************

 Orbital symmetries:
       Occupied  (A) (A) (A) (A) (A) (A) (A) (A) (A) (A) (A) (A)
                 (A) (A) (A) (A) (A) (A) (A) (A) (A) (A) (A) (A)
                 (A) (A) (A) (A) (A) (A) (A) (A) (A) (A) (A) (A)
                 (A) (A) (A) (A) (A) (A) (A) (A) (A) (A) (A) (A)
                 (A) (A) (A) (A) (A)
       Virtual   (A) (A) (A) (A) (A) (A) (A) (A) (A) (A) (A) (A)
                 (A) (A) (A) (A) (A) (A) (A) (A) (A) (A) (A) (A)
                 (A) (A) (A) (A) (A) (A) (A) (A) (A) (A) (A) (A)
                 (A) (A) (A) (A) (A) (A) (A) (A) (A) (A) (A) (A)
                 (A) (A) (A) (A) (A) (A) (A) (A) (A) (A) (A) (A)
                 (A) (A) (A) (A) (A) (A) (A) (A) (A) (A) (A) (A)
                 (A) (A) (A) (A) (A) (A) (A) (A) (A) (A) (A) (A)
                 (A) (A) (A) (A) (A) (A) (A) (A) (A) (A) (A) (A)
                 (A) (A) (A) (A) (A) (A) (A) (A) (A) (A) (A) (A)
                 (A) (A) (A) (A) (A) (A) (A) (A) (A) (A) (A) (A)
                 (A) (A) (A) (A) (A) (A) (A) (A) (A) (A) (A) (A)
                 (A) (A) (A) (A) (A) (A) (A) (A) (A) (A) (A) (A)
                 (A) (A) (A) (A) (A) (A) (A) (A) (A) (A) (A) (A)
                 (A) (A) (A) (A) (A) (A) (A) (A) (A) (A) (A) (A)
                 (A) (A) (A) (A) (A) (A) (A) (A) (A) (A) (A) (A)
                 (A) (A) (A) (A) (A) (A) (A) (A) (A) (A) (A) (A)
                 (A) (A) (A) (A) (A) (A) (A) (A) (A) (A) (A) (A)
                 (A) (A) (A) (A) (A) (A) (A) (A) (A) (A) (A) (A)
                 (A) (A) (A) (A) (A) (A) (A) (A) (A) (A) (A) (A)
                 (A) (A) (A) (A) (A) (A) (A) (A) (A) (A) (A) (A)
                 (A) (A) (A) (A) (A) (A) (A) (A) (A)
 The electronic state is 1-A.
 Alpha  occ. eigenvalues --  -19.26526 -19.26458 -19.22132 -19.21811 -19.21129
 Alpha  occ. eigenvalues --  -19.20494 -14.61160 -10.37957 -10.37670 -10.34975
 Alpha  occ. eigenvalues --  -10.32038 -10.28779 -10.28315 -10.26432 -10.25065
 Alpha  occ. eigenvalues --   -1.26325  -1.17671  -1.17489  -1.09886  -1.09729
 Alpha  occ. eigenvalues --   -1.08876  -0.90795  -0.86699  -0.83772  -0.78234
 Alpha  occ. eigenvalues --   -0.72248  -0.68477  -0.66021  -0.61454  -0.60045
 Alpha  occ. eigenvalues --   -0.58842  -0.57463  -0.55794  -0.53541  -0.52702
 Alpha  occ. eigenvalues --   -0.52035  -0.51400  -0.50913  -0.48632  -0.48591
 Alpha  occ. eigenvalues --   -0.46652  -0.45059  -0.43285  -0.41669  -0.41423
 Alpha  occ. eigenvalues --   -0.39280  -0.35030  -0.34364  -0.34273  -0.33254
 Alpha  occ. eigenvalues --   -0.32668  -0.32625  -0.27059
 Alpha virt. eigenvalues --   -0.17128  -0.10940  -0.03111  -0.02033  -0.01961
 Alpha virt. eigenvalues --   -0.00829   0.00070   0.00844   0.01889   0.02593
 Alpha virt. eigenvalues --    0.02834   0.04511   0.04722   0.05736   0.06323
 Alpha virt. eigenvalues --    0.06481   0.06914   0.08977   0.09042   0.09196
 Alpha virt. eigenvalues --    0.09586   0.09838   0.10327   0.10525   0.10590
 Alpha virt. eigenvalues --    0.11537   0.11927   0.12918   0.13338   0.13532
 Alpha virt. eigenvalues --    0.14101   0.14675   0.15111   0.15177   0.15961
 Alpha virt. eigenvalues --    0.16485   0.16661   0.17228   0.17358   0.17899
 Alpha virt. eigenvalues --    0.19707   0.19998   0.20310   0.20437   0.21524
 Alpha virt. eigenvalues --    0.22161   0.22539   0.23369   0.23952   0.25760
 Alpha virt. eigenvalues --    0.25864   0.26771   0.27126   0.27227   0.27560
 Alpha virt. eigenvalues --    0.27987   0.28115   0.28606   0.28713   0.28754
 Alpha virt. eigenvalues --    0.29626   0.30139   0.30898   0.31186   0.31592
 Alpha virt. eigenvalues --    0.32263   0.33259   0.33790   0.34255   0.35285
 Alpha virt. eigenvalues --    0.36206   0.37272   0.37987   0.39068   0.39780
 Alpha virt. eigenvalues --    0.40436   0.41332   0.41792   0.43830   0.44780
 Alpha virt. eigenvalues --    0.45855   0.47281   0.47762   0.50544   0.53061
 Alpha virt. eigenvalues --    0.53307   0.61348   0.63642   0.64397   0.65680
 Alpha virt. eigenvalues --    0.67580   0.68104   0.68225   0.69676   0.71079
 Alpha virt. eigenvalues --    0.71245   0.72749   0.73007   0.77586   0.77703
 Alpha virt. eigenvalues --    0.78479   0.85880   0.87402   0.87763   0.89394
 Alpha virt. eigenvalues --    0.91608   0.92582   0.95058   0.98697   1.00154
 Alpha virt. eigenvalues --    1.03241   1.04364   1.06330   1.08913   1.10342
 Alpha virt. eigenvalues --    1.10902   1.11962   1.13456   1.14925   1.15692
 Alpha virt. eigenvalues --    1.16211   1.17141   1.19045   1.20781   1.20852
 Alpha virt. eigenvalues --    1.22623   1.23056   1.24302   1.25089   1.26702
 Alpha virt. eigenvalues --    1.27088   1.27941   1.28763   1.29918   1.30442
 Alpha virt. eigenvalues --    1.31232   1.31784   1.32102   1.33083   1.34774
 Alpha virt. eigenvalues --    1.35442   1.36002   1.37578   1.37828   1.38172
 Alpha virt. eigenvalues --    1.38521   1.38649   1.41601   1.43464   1.43701
 Alpha virt. eigenvalues --    1.44575   1.46760   1.50492   1.56696   1.60803
 Alpha virt. eigenvalues --    1.64259   1.65621   1.65632   1.67587   1.68950
 Alpha virt. eigenvalues --    1.72994   1.73410   1.74987   1.76458   1.76620
 Alpha virt. eigenvalues --    1.77801   1.80168   1.80569   1.83760   1.84796
 Alpha virt. eigenvalues --    1.87799   1.88098   1.89703   1.90708   1.91587
 Alpha virt. eigenvalues --    1.92470   1.94914   1.95247   1.96545   1.96761
 Alpha virt. eigenvalues --    1.98776   2.03375   2.03499   2.06204   2.09280
 Alpha virt. eigenvalues --    2.12297   2.13780   2.15329   2.16237   2.20420
 Alpha virt. eigenvalues --    2.20548   2.22294   2.24407   2.27141   2.27399
 Alpha virt. eigenvalues --    2.35907   2.40872   2.41188   2.43592   2.44061
 Alpha virt. eigenvalues --    2.44627   2.48213   2.49451   2.49586   2.56937
 Alpha virt. eigenvalues --    2.59892   2.60994   2.62173   2.63091   2.64035
 Alpha virt. eigenvalues --    2.67939   2.67977   2.68371   2.72958   2.73314
 Alpha virt. eigenvalues --    2.80378   2.82761   2.87963   2.90923   2.95720
 Alpha virt. eigenvalues --    2.95980   3.01380   3.03291   3.03725   3.07084
 Alpha virt. eigenvalues --    3.09798   3.17546   3.20633   3.23610   3.27066
 Alpha virt. eigenvalues --    3.31084   3.38849   3.57553   3.69916   4.13600
 Alpha virt. eigenvalues --    4.21384   4.25576   4.27421   4.31628   4.35933
 Alpha virt. eigenvalues --    4.38665   4.46077   4.56944   4.62068   4.65259
 Alpha virt. eigenvalues --    4.73600   4.76910   4.85659   5.01604
          Condensed to atoms (all electrons):
               1          2          3          4          5          6
     1  C   11.052747  -0.813712  -1.581909  -0.053811   0.308074  -4.511377
     2  C   -0.813712  14.264008  -6.852358  -0.383243  -1.889181  -1.538058
     3  C   -1.581909  -6.852358  17.584526   0.815879  -1.276045   2.269763
     4  H   -0.053811  -0.383243   0.815879   0.530198  -0.104529   0.040291
     5  C    0.308074  -1.889181  -1.276045  -0.104529  12.626198   0.350961
     6  C   -4.511377  -1.538058   2.269763   0.040291   0.350961  13.644622
     7  H   -0.222133  -0.036381   0.012532   0.000376  -0.000355   0.640703
     8  C    1.003353   0.577577  -0.033041  -0.007733  -0.178739  -2.420749
     9  H   -0.027719   0.008693   0.001421   0.000131   0.000280  -0.138944
    10  O   -0.037932  -0.393068   0.391198   0.011508  -0.172015   0.044904
    11  C    0.914123   1.062605  -2.380094   0.012705  -2.712147  -1.401878
    12  O   -0.137826   0.081318  -0.042916   0.000999   0.092814  -0.003333
    13  C   -0.173625   0.932142  -2.099017  -0.060209  -0.419643  -0.541990
    14  O   -0.003069  -0.056293   0.008360  -0.009347   0.056032  -0.216876
    15  O   -0.075578  -0.082720   0.083830   0.001242   0.014504   0.191014
    16  N    0.015837  -0.175773   0.051886  -0.014816  -0.288166  -0.002181
    17  O   -0.005282   0.072933   0.005045   0.001751  -0.095190   0.000721
    18  O    0.013285   0.217096  -0.025589  -0.011932  -0.361674  -0.001170
               7          8          9         10         11         12
     1  C   -0.222133   1.003353  -0.027719  -0.037932   0.914123  -0.137826
     2  C   -0.036381   0.577577   0.008693  -0.393068   1.062605   0.081318
     3  C    0.012532  -0.033041   0.001421   0.391198  -2.380094  -0.042916
     4  H    0.000376  -0.007733   0.000131   0.011508   0.012705   0.000999
     5  C   -0.000355  -0.178739   0.000280  -0.172015  -2.712147   0.092814
     6  C    0.640703  -2.420749  -0.138944   0.044904  -1.401878  -0.003333
     7  H    0.526581  -0.139316  -0.004071   0.000204  -0.012507  -0.016958
     8  C   -0.139316   7.608096   0.472135   0.010537   0.081119   0.041307
     9  H   -0.004071   0.472135   0.566726   0.000187  -0.002344   0.000715
    10  O    0.000204   0.010537   0.000187   8.597357   0.025540  -0.076601
    11  C   -0.012507   0.081119  -0.002344   0.025540   8.610701   0.261633
    12  O   -0.016958   0.041307   0.000715  -0.076601   0.261633   8.295697
    13  C    0.045907  -0.748471   0.038861  -0.005861   0.632626  -0.034022
    14  O   -0.001275   0.129160   0.000322  -0.000383  -0.021310   0.000449
    15  O    0.012622  -0.250304  -0.087762   0.000342  -0.020496  -0.000562
    16  N    0.000343  -0.002053  -0.000039  -0.054217   0.182968   0.002902
    17  O   -0.000101  -0.000317  -0.000003   0.015008  -0.067852   0.000476
    18  O    0.000106   0.000582   0.000005  -0.006212   0.075682  -0.000592
              13         14         15         16         17         18
     1  C   -0.173625  -0.003069  -0.075578   0.015837  -0.005282   0.013285
     2  C    0.932142  -0.056293  -0.082720  -0.175773   0.072933   0.217096
     3  C   -2.099017   0.008360   0.083830   0.051886   0.005045  -0.025589
     4  H   -0.060209  -0.009347   0.001242  -0.014816   0.001751  -0.011932
     5  C   -0.419643   0.056032   0.014504  -0.288166  -0.095190  -0.361674
     6  C   -0.541990  -0.216876   0.191014  -0.002181   0.000721  -0.001170
     7  H    0.045907  -0.001275   0.012622   0.000343  -0.000101   0.000106
     8  C   -0.748471   0.129160  -0.250304  -0.002053  -0.000317   0.000582
     9  H    0.038861   0.000322  -0.087762  -0.000039  -0.000003   0.000005
    10  O   -0.005861  -0.000383   0.000342  -0.054217   0.015008  -0.006212
    11  C    0.632626  -0.021310  -0.020496   0.182968  -0.067852   0.075682
    12  O   -0.034022   0.000449  -0.000562   0.002902   0.000476  -0.000592
    13  C    7.220032   0.364381   0.177809   0.001981  -0.003476   0.012920
    14  O    0.364381   8.269256  -0.075404   0.000434  -0.000047   0.000113
    15  O    0.177809  -0.075404   8.371580  -0.000042  -0.000003  -0.000000
    16  N    0.001981   0.000434  -0.000042   6.934226   0.402382   0.368981
    17  O   -0.003476  -0.000047  -0.000003   0.402382   7.673042  -0.058989
    18  O    0.012920   0.000113  -0.000000   0.368981  -0.058989   7.813074
 Mulliken charges:
               1
     1  C    0.336554
     2  C    1.004415
     3  C   -0.933469
     4  H    0.230539
     5  C    0.048820
     6  C   -0.406422
     7  H    0.193724
     8  C   -0.143144
     9  H    0.171407
    10  O   -0.350495
    11  C    0.758926
    12  O   -0.465502
    13  C    0.659657
    14  O   -0.444503
    15  O   -0.260072
    16  N   -0.424651
    17  O    0.059903
    18  O   -0.035685
 Sum of Mulliken charges =  -0.00000
 Mulliken charges with hydrogens summed into heavy atoms:
               1
     1  C    0.336554
     2  C    1.004415
     3  C   -0.702929
     5  C    0.048820
     6  C   -0.212698
     8  C    0.028263
    10  O   -0.350495
    11  C    0.758926
    12  O   -0.465502
    13  C    0.659657
    14  O   -0.444503
    15  O   -0.260072
    16  N   -0.424651
    17  O    0.059903
    18  O   -0.035685
 Electronic spatial extent (au):  <R**2>=           3432.2268
 Charge=              0.0000 electrons
 Dipole moment (field-independent basis, Debye):
    X=              5.9015    Y=              1.3431    Z=             -0.0003  Tot=              6.0524
 Quadrupole moment (field-independent basis, Debye-Ang):
   XX=            -88.6085   YY=            -98.6324   ZZ=            -80.7105
   XY=              8.3341   XZ=             -0.0016   YZ=             -0.0024
 Traceless Quadrupole moment (field-independent basis, Debye-Ang):
   XX=              0.7087   YY=             -9.3153   ZZ=              8.6066
   XY=              8.3341   XZ=             -0.0016   YZ=             -0.0024
 Octapole moment (field-independent basis, Debye-Ang**2):
  XXX=            131.4443  YYY=             -4.6534  ZZZ=             -0.0009  XYY=              1.4111
  XXY=             45.0021  XXZ=              0.0008  XZZ=            -11.1909  YZZ=             -2.5691
  YYZ=             -0.0054  XYZ=             -0.0019
 Hexadecapole moment (field-independent basis, Debye-Ang**3):
 XXXX=          -3319.9577 YYYY=          -1054.0147 ZZZZ=            -78.2440 XXXY=             89.0906
 XXXZ=             -0.0197 YYYX=             20.8253 YYYZ=             -0.0138 ZZZX=              0.0051
 ZZZY=              0.0028 XXYY=           -768.0779 XXZZ=           -547.4852 YYZZ=           -166.5673
 XXYZ=             -0.0085 YYXZ=             -0.0121 ZZXY=            -10.1323
 N-N= 9.357262850574D+02 E-N=-3.770022773721D+03  KE= 8.054805138147D+02
 Unable to Open any file for archive entry.
 1\1\GINC-N1\SP\RB3LYP TD-FC\6-31++G(d,p)\C8H3N1O6\HPCMGAC13\01-Jul-202
 5\0\\# td=(50-50,nstates=3) b3lyp/6-31++g(d,p) geom=connectivity\\Titl
 e Card Required\\0,1\C,0,1.636473,0.142929,-0.000043\C,0,0.272479,0.26
 4364,0.000088\C,0,-0.753278,-0.742971,0.000445\H,0,-0.630822,-1.814545
 ,0.000688\C,0,-1.921957,-0.060859,-0.000081\C,0,2.667267,1.13883,-0.00
 0193\H,0,2.529688,2.209224,-0.000381\C,0,3.846309,0.468684,-0.000101\H
 ,0,4.865531,0.828726,-0.000202\O,0,-1.810465,1.296444,-0.000078\C,0,-0
 .432919,1.57967,0.00008\O,0,-0.017463,2.706452,0.000315\C,0,2.344876,-
 1.179653,0.000053\O,0,1.923902,-2.303891,0.000244\O,0,3.714968,-0.8966
 56,-0.000274\N,0,-3.262986,-0.601062,-0.00016\O,0,-4.198063,0.19489,-0
 .000168\O,0,-3.347753,-1.832482,-0.000098\\Version=ES64L-G16RevC.02\St
 ate=1-A\HF=-812.642775\RMSD=7.493e-09\PG=C01 [X(C8H3N1O6)]\\@
 The archive entry for this job was punched.


 WE ARE REACHING THE STAGE WHERE THE PROBLEMS WE MUST SOLVE ARE 
 GOING TO BECOME INSOLUBLE WITHOUT COMPUTERS.
 I DO NOT FEAR COMPUTERS.  I FEAR THE LACK OF THEM.

                                   -- ISSAC ASIMOV
 Job cpu time:       0 days  0 hours 27 minutes 57.1 seconds.
 Elapsed time:       0 days  0 hours  3 minutes 34.2 seconds.
 File lengths (MBytes):  RWF=    630 Int=      0 D2E=      0 Chk=     26 Scr=      2
 Normal termination of Gaussian 16 at Tue Jul  1 15:44:45 2025.
